LAMMPS data file via write_data, version 17 Apr 2024, timestep = 500, units = real

9401 atoms
6 atom types
5302 bonds
1 bond types
2651 angles
1 angle types

0 42.6 xlo xhi
0 44.2712 ylo yhi
-25.1 25.1 zlo zhi

Masses

1 12.011
2 15.9994
3 1.008
4 22.9898
5 35.453
6 12.011

Pair Coeffs # lj/cut/coul/long

1 0.0663 3.5812
2 0.1553 3.1656
3 0 0
4 0.1 2.584
5 0.1 4.401
6 0.0663 3.5812

Bond Coeffs # harmonic

1 1000 1

Angle Coeffs # harmonic

1 100 109.47

Atoms # full

1 0 1 0.000130091000919517 0.71 2.02 -25 0 0 0
2 0 1 -4.565725569274482e-05 0 5.71 -25 0 0 0
3 0 1 0.0001957793078989322 0.71 9.4 -25 0 0 0
4 0 1 0.0005438638058816486 0 13.09 -25 0 0 0
5 0 1 0.0001976225795263393 2.13 2.02 -25 0 0 0
6 0 1 -0.0003806093839173578 2.84 5.71 -25 0 0 0
7 0 1 -0.0001784026916310719 2.13 9.4 -25 0 0 0
8 0 1 0.0004799008881213068 2.84 13.09 -25 0 0 0
9 0 1 0.0003614318590788494 4.97 2.02 -25 0 0 0
10 0 1 -0.0003492151396431265 4.26 5.71 -25 0 0 0
11 0 1 -0.0003157497824409848 4.97 9.4 -25 0 0 0
12 0 1 0.0003283208421876049 4.26 13.09 -25 0 0 0
13 0 1 0.0004821006283649511 6.39 2.02 -25 0 0 0
14 0 1 -2.82583695010178e-05 7.1 5.71 -25 0 0 0
15 0 1 -0.0003108132931301944 6.39 9.4 -25 0 0 0
16 0 1 8.531689482438297e-05 7.1 13.09 -25 0 0 0
17 0 1 -0.000109784085659289 9.23 2.02 -25 0 0 0
18 0 1 -2.503314723234114e-05 8.52 5.71 -25 0 0 0
19 0 1 -0.0003174319747557874 9.23 9.4 -25 0 0 0
20 0 1 0.0001244371562242145 8.52 13.09 -25 0 0 0
21 0 1 2.946831363671699e-05 0 3.25 -25 0 0 0
22 0 1 -3.136310421298998e-07 0.71 6.94 -25 0 0 0
23 0 1 0.0003912743098788349 0 10.63 -25 0 0 0
24 0 1 0.000636300772023157 0.71 14.32 -25 0 0 0
25 0 1 -0.0002734261849678092 2.13 6.94 -25 0 0 0
26 0 1 -1.095893759300044e-05 2.84 3.25 -25 0 0 0
27 0 1 -1.731113688125941e-05 2.84 10.63 -25 0 0 0
28 0 1 0.0006401545698050807 2.13 14.32 -25 0 0 0
29 0 1 4.844226079899685e-05 4.26 3.25 -25 0 0 0
30 0 1 -0.0002889969364880572 4.97 6.94 -25 0 0 0
31 0 1 -0.000113150775641476 4.26 10.63 -25 0 0 0
32 0 1 0.0003513186021739107 4.97 14.32 -25 0 0 0
33 0 1 0.0004155793713945272 7.1 3.25 -25 0 0 0
34 0 1 -0.0002225102441518946 6.39 6.94 -25 0 0 0
35 0 1 -0.0002303709872488936 7.1 10.63 -25 0 0 0
36 0 1 0.0002042276589505697 6.39 14.32 -25 0 0 0
37 0 1 0.0002920692956954962 8.52 3.25 -25 0 0 0
38 0 1 -0.0002301962173337406 9.23 6.94 -25 0 0 0
39 0 1 -0.0002692231579118895 8.52 10.63 -25 0 0 0
40 0 1 0.0003416962237518638 9.23 14.32 -25 0 0 0
41 0 1 -8.798454197709458e-05 0 0.79 -25 0 0 0
42 0 1 -3.603246585631241e-05 0.71 4.48 -25 0 0 0
43 0 1 0.0002586038304138847 0 8.17 -25 0 0 0
44 0 1 0.0004226360885230712 0.71 11.86 -25 0 0 0
45 0 1 0.000282283220942981 2.84 0.79 -25 0 0 0
46 0 1 -0.0002013968174982206 2.13 4.48 -25 0 0 0
47 0 1 -0.0004579503984702159 2.84 8.17 -25 0 0 0
48 0 1 0.0003219986184769397 2.13 11.86 -25 0 0 0
49 0 1 0.0004004204327898033 4.26 0.79 -25 0 0 0
50 0 1 -0.0001111627756340145 4.97 4.48 -25 0 0 0
51 0 1 -0.0004628459234117005 4.26 8.17 -25 0 0 0
52 0 1 8.961076219227844e-05 4.97 11.86 -25 0 0 0
53 0 1 0.0004182924395467891 7.1 0.79 -25 0 0 0
54 0 1 0.0001740752056335735 6.39 4.48 -25 0 0 0
55 0 1 -0.0003774335610469781 7.1 8.17 -25 0 0 0
56 0 1 6.744285715187658e-06 6.39 11.86 -25 0 0 0
57 0 1 -1.36317411525244e-05 8.52 0.79 -25 0 0 0
58 0 1 0.0001390323469013617 9.23 4.48 -25 0 0 0
59 0 1 -0.0003892879357144892 8.52 8.17 -25 0 0 0
60 0 1 -3.074568606120992e-05 9.23 11.86 -25 0 0 0
5428 1614 2 -0.8472 1.8890641358725262 13.64120641976359 -21.518249849583096 -1 -2 0
1605 532 3 0.4236 1.668255021791351 8.906747316403388 -16.94172190061669 0 -2 0
1767 532 2 -0.8472 2.3650660959002696 9.222565859276987 -17.585706455389655 0 -2 0
4133 1206 3 0.4236 8.308979231909086 3.871875111145487 -21.079075202110484 -1 -2 0
9274 2585 3 0.4236 2.673068861021309 5.6342924019243625 -21.337303647372366 2 -3 0
4131 1206 2 -0.8472 7.721671286953998 4.131465188753196 -21.845679337294765 -1 -2 0
4132 1206 3 0.4236 7.538541757890473 5.113812780498808 -21.80752568885626 -1 -2 0
9273 2585 2 -0.8472 3.6237048080411767 5.394407347611316 -21.534144610336675 2 -3 0
6659 1919 3 0.4236 4.5502043470509586 5.144245005388977 -18.18786016238678 2 -3 0
6660 1919 3 0.4236 4.478952561223464 5.120699108277558 -19.81911519614512 2 -3 0
6507 1354 3 0.4236 3.4118986614327884 8.90685655689542 -22.437299882865144 0 -3 0
1033 414 2 -0.8472 6.022876681755893 1.6319437484952433 -15.859086755209407 0 -1 0
6658 1919 2 -0.8472 5.091247168058755 5.11944434051269 -19.028489261690005 2 -3 0
6147 439 3 0.4236 0.40903066403721977 5.281418866810837 -17.527013379207858 0 -1 0
7242 2106 2 -0.8472 10.601229870372443 3.234591575846591 -20.21002468189135 1 -2 0
7243 2106 3 0.4236 11.493819638499131 3.6487314184217885 -20.031779950730936 1 -2 0
7244 2106 3 0.4236 10.710184894374187 2.4665266386777005 -20.84105928143059 1 -2 0
2793 901 3 0.4236 6.9652258456972325 2.608877385914628 -22.007205061008513 1 -1 0
7816 2272 3 0.4236 1.0295427001042112 3.7633832814236543 -21.448748437315167 0 -4 0
9335 2651 3 0.4236 4.382150857883802 9.340416955984917 -20.013946471523546 2 -3 0
1844 1855 3 0.4236 21.189556026813985 13.30054323399837 -21.74998120786243 -1 0 0
4837 1354 3 0.4236 4.730559938841466 9.496921297635762 -21.675996285729113 0 -3 0
1256 440 3 0.4236 5.655719859912254 10.977754774030183 -19.204443126460628 1 -3 0
4280 1262 2 -0.8472 0.888508666383459 5.390063814709035 -20.679672892631032 3 -3 0
1255 440 2 -0.8472 6.019150065392903 11.908022695039643 -19.154204736525386 1 -3 0
9345 2651 2 -0.8472 4.663060578382605 9.528527968432764 -19.072827725926434 2 -3 0
7698 901 3 0.4236 7.366202942233069 1.147608851060963 -21.398486969066013 1 -1 0
4835 1354 2 -0.8472 3.7461062513535808 9.338755485280267 -21.599582591221246 0 -3 0
9326 2651 3 0.4236 3.952346264218738 9.213885697097785 -18.44363306705244 2 -3 0
6593 1963 3 0.4236 2.159287366774949 0.9943197203760261 -19.699777888690672 0 -3 0
9275 2585 3 0.4236 3.671960318746649 4.9153673017460005 -22.41060998643177 2 -3 0
4282 1262 3 0.4236 0.8879017940964015 5.1305370516754705 -19.713936714706254 3 -3 0
938 333 3 0.4236 2.9374013648103063 13.944661661916834 -17.59542955354326 1 -2 0
522 114 3 0.4236 6.839233029784013 8.476330774600195 -20.908734125163242 0 -1 0
2708 847 3 0.4236 16.396756123368146 0.9077488423974295 -17.71623252737783 0 -3 0
2792 901 2 -0.8472 6.641021533353554 1.678287146726006 -21.837226455103824 1 -1 0
520 114 2 -0.8472 6.562561210853269 9.03610272308729 -21.68982909670607 0 -1 0
7986 2272 3 0.4236 2.0347128106425285 2.544362272227474 -21.86135759079783 0 -4 0
4048 333 3 0.4236 3.0747314280365163 13.338909462075266 -16.0851879699862 1 -2 0
2173 710 3 0.4236 6.094661559467689 3.889441073918542 -18.38724957065166 0 -2 0
5972 1819 3 0.4236 5.072964943968051 0.11656515321972383 -15.176981271085815 1 -2 0
1637 554 2 -0.8472 1.2108467702547316 11.87565744306162 -18.814590922727746 0 0 0
896 417 2 -0.8472 6.350435039857592 12.339313072612457 -16.501002766157892 0 -3 0
521 114 3 0.4236 7.33889078322966 9.150253137352232 -22.309732212260016 0 -1 0
2315 726 2 -0.8472 2.8718928878740817 3.2384900667435152 -17.009815058008446 1 0 0
2171 710 2 -0.8472 6.449805588117982 2.9864457258448125 -18.145434861436634 0 -2 0
1768 532 3 0.4236 2.3446851882922055 10.221111134621433 -17.635636040149983 0 -2 0
5655 1638 3 0.4236 4.798304273282491 13.100945045889071 -19.251685374504024 1 -3 0
2589 804 2 -0.8472 5.763184773058726 9.389010245523501 -15.874525840049133 2 -2 0
6607 1971 3 0.4236 4.967608544456737 12.455186232808428 -15.452745323555108 1 -3 0
8645 2477 3 0.4236 6.084976116161499 6.765394587114557 -19.23491153361155 -1 -2 0
2172 710 3 0.4236 7.429234782042261 2.949411518382061 -18.343798931237178 0 -2 0
2591 804 3 0.4236 5.9045762943560005 9.700016126162648 -16.814357716824286 2 -2 0
138 49 3 0.4236 2.1875557626962534 9.91857195602234 -21.064583846551066 -1 -3 0
7187 2157 3 0.4236 9.221799869601401 11.181861367070924 -16.67738360450129 0 -3 0
4912 49 3 0.4236 1.3189376815801348 10.931441665380504 -20.123189877028764 -1 -3 0
4335 1323 3 0.4236 9.532899707035368 0.7337279563532494 -20.970907553278963 2 -2 0
1638 554 3 0.4236 1.8042841065293955 12.544866746257657 -18.367385440876518 0 0 0
4493 1284 3 0.4236 4.032539323915519 2.112775209809123 -20.49568655542488 0 -1 0
1488 496 2 -0.8472 9.564158018141931 8.484222054914124 -19.29214379905492 -1 -1 0
894 417 3 0.4236 6.03504455608145 12.297999383713451 -17.44906520083217 0 -3 0
9025 1722 2 -0.8472 4.534259440383541 1.482502773052025 -18.641967996964446 2 -2 0
5263 1569 3 0.4236 0.7034632891830546 14.457553354861922 -16.734325737951146 2 -3 0
5768 1722 3 0.4236 5.332388682911209 2.0368011019511507 -18.405865188590933 2 -2 0
4492 1284 3 0.4236 4.88193602276993 2.0894179728217375 -21.890177957099592 0 -1 0
1316 496 3 0.4236 8.729275502333556 7.936436793765342 -19.238270618789446 -1 -1 0
4491 1284 2 -0.8472 3.97161543744063 2.1963615187201233 -21.490324407827096 0 -1 0
895 417 3 0.4236 7.346247119585285 12.42925963605853 -16.484625091853726 0 -3 0
5529 1653 2 -0.8472 7.363892151310319 12.498537725984422 -21.598159691076564 0 -4 0
9178 2636 3 0.4236 9.625124588866587 1.6359037918348034 -17.741936978337964 2 -2 0
137 49 2 -0.8472 1.3255437966190295 10.418632074186688 -20.981666560696564 -1 -3 0
1257 440 3 0.4236 6.618540403953558 12.074436541989865 -19.93717377378882 1 -3 0
5345 1653 3 0.4236 6.7407439089518 13.226282832398674 -21.88464546083521 0 -4 0
8646 2477 3 0.4236 6.187043585357803 8.389483417019308 -19.098746499499057 -1 -2 0
1031 414 3 0.4236 5.937895216586099 2.3122707844700914 -16.587050939127757 0 -1 0
1487 496 3 0.4236 9.522609494430453 9.076912403088562 -20.096501946815984 -1 -1 0
7841 2289 2 -0.8472 1.233613089365393 8.682284239376672 -15.271336570240283 2 -2 0
358 99 3 0.4236 14.527465184855723 9.000810029999025 -17.677813756988805 1 -3 0
9177 2636 2 -0.8472 9.114554800990465 2.20116549485408 -18.389854858644863 2 -2 0
8644 2477 2 -0.8472 6.6879655322961575 7.5568468280382515 -19.334955146475618 -1 -2 0
5769 1722 3 0.4236 4.809269012587404 0.5257990921202575 -18.737292777807387 2 -2 0
8032 2303 2 -0.8472 9.149488048128289 10.190754791495653 -21.278934787823687 2 -3 0
8033 2303 3 0.4236 8.391317986155794 10.761634286523575 -21.59401553675599 2 -3 0
6419 1907 3 0.4236 9.478315106774014 13.817184443321402 -20.561023320070753 1 -1 0
4047 333 2 -0.8472 2.4411065332008817 13.522827805933009 -16.836649012338697 1 -2 0
7192 1653 3 0.4236 8.30278840231438 12.753421136363466 -21.82948561071871 0 -4 0
2317 726 3 0.4236 2.493103849028078 2.71754011562624 -16.24487608577002 1 0 0
6592 1963 2 -0.8472 1.5652202282002454 0.223250409270823 -19.470578729690327 0 -3 0
4345 1323 2 -0.8472 8.65505257709006 0.5599785294837932 -20.524593499318556 2 -2 0
9179 2636 3 0.4236 9.75456172634757 2.730335523827822 -18.946964045883206 2 -2 0
7186 2157 3 0.4236 9.39887285478355 12.653175701149076 -17.363317828255934 0 -3 0
7679 2238 3 0.4236 16.975630274231474 8.65201103544067 -15.501801237047218 1 -2 0
283 34 3 0.4236 0.63941517056632 8.269150321519858 -18.84482487983832 0 -3 0
2316 726 3 0.4236 3.488783217917285 2.6546892904592303 -17.5376636286132 1 0 0
1032 414 3 0.4236 6.865694859542235 1.1094022809254076 -15.987953076057726 0 -1 0
1409 430 3 0.4236 10.825730655167147 0.8487098011746808 -22.75832099368606 0 -3 0
3148 2 2 -0.8472 9.395695236129786 13.682002312845631 -18.717065946261197 1 -3 0
6594 1963 3 0.4236 0.6115702982566363 0.47819134112018036 -19.630451409750133 0 -3 0
5654 1638 2 -0.8472 4.115328971110169 13.829094014782543 -19.19381478104947 1 -3 0
5482 1638 3 0.4236 3.872954335195023 14.13273894970341 -20.115257145205224 1 -3 0
7795 2258 3 0.4236 5.5402669709703956 0.3666333221100074 -21.53212818732849 -1 1 0
3155 34 3 0.4236 0.5755176344554476 6.884680956157399 -19.708414889498943 0 -3 0
192 0 1 -0.0003338949577543652 14.91 9.4 -25 0 0 0
4343 1323 3 0.4236 8.617266319568074 1.0579695497899988 -19.658235156479037 2 -2 0
1253 439 3 0.4236 1.7211577203559774 4.311047492560326 -17.584683315226197 0 -1 0
5426 1614 3 0.4236 1.817483903554224 12.644176419732663 -21.54666576491129 -1 -2 0
6424 1907 2 -0.8472 9.929963691218344 13.669063355508564 -21.440837936665424 1 -1 0
8034 2303 3 0.4236 10.01181144905653 10.679923702574488 -21.40975658192399 2 -3 0
1461 467 3 0.4236 18.205798696773652 0.4011786188697386 -15.127273837051993 3 -4 0
6914 2078 3 0.4236 9.69722933614761 9.04864418148502 -17.78601466537159 0 -3 0
1408 430 2 -0.8472 10.848813045723423 1.0592201901942362 -21.781002610882382 0 -3 0
7185 2157 2 -0.8472 9.080855213718255 12.163816122732928 -16.551288038066648 0 -3 0
61 2 3 0.4236 8.70263940435009 14.401920031585831 -18.67976684790173 1 -3 0
7066 2078 2 -0.8472 9.905117024200795 9.581271264904718 -16.965594609375007 0 -3 0
8529 1538 3 0.4236 14.221133507984764 13.370930033006747 -22.63433028552572 1 -2 0
734 274 3 0.4236 11.53206978343501 1.092204052358845 -16.93440729645905 -1 -4 0
3881 274 2 -0.8472 10.694377641385064 0.5542319845480168 -16.84028434113092 -1 -4 0
1252 439 2 -0.8472 0.993058279400195 4.732663810257886 -18.12515958487073 0 -1 0
3646 1089 3 0.4236 16.536672592574977 14.057322519345883 -17.869057503030447 -1 -3 0
5425 1614 3 0.4236 1.0116057660390996 14.045848211047646 -21.77579874564602 -1 -2 0
7035 721 3 0.4236 17.9476868010097 2.5040606219310435 -15.354070464522431 0 -2 0
7067 2078 3 0.4236 10.79347422573837 9.300604200619759 -16.60221308637608 0 -3 0
2707 847 2 -0.8472 15.881676125450735 0.055107198931219376 -17.62851280680426 0 -3 0
7985 2272 2 -0.8472 1.0815585459767212 2.794708515455938 -21.691576391805945 0 -4 0
7680 2238 3 0.4236 17.837502008246883 10.037352979432692 -15.433771793511694 1 -2 0
8966 2555 3 0.4236 19.546135347883176 8.61789729273299 -18.93022846644018 0 -1 0
2188 721 2 -0.8472 17.288146515057264 3.2194257139486377 -15.584859739440418 0 -2 0
6755 1984 2 -0.8472 12.310346559983435 8.558432736195948 -15.816877451366704 0 -3 0
3322 34 2 -0.8472 0.21898701618431454 7.363916771378562 -18.90640518842473 0 -3 0
2590 804 3 0.4236 6.625301590049643 9.446643079171157 -15.37110348270974 2 -2 0
5083 1530 2 -0.8472 17.23164470277628 0.6404777672822357 -20.754552642455405 0 -4 0
785 227 3 0.4236 15.464642103865819 3.5334561783939757 -18.314486681846137 2 -4 0
5347 1626 3 0.4236 12.537195480996798 2.5050786078943985 -16.31260774643662 -1 -2 0
1002 375 3 0.4236 14.18963751496976 3.0454609182673966 -20.84741303161826 2 -2 0
7455 2197 3 0.4236 13.98089332844305 13.371119082101877 -16.37346878323697 1 -2 0
5612 1706 3 0.4236 19.422360997628765 11.490531256285639 -15.70875868600709 0 -3 0
7458 2198 3 0.4236 13.043667279384996 1.2080792407460323 -18.888346666304972 0 -2 0
211 0 1 -0.0003131325124557349 14.91 6.94 -25 0 0 0
8955 2548 3 0.4236 20.210439522980387 8.105132095274794 -22.224747993888457 0 -1 0
4822 1344 2 -0.8472 11.438076604706882 14.307194819062834 -17.37979867751537 1 -3 0
7605 2189 3 0.4236 19.18856452410106 0.5107939919350464 -18.44006705123587 -1 -1 0
4949 1436 3 0.4236 20.764886499922643 9.582973609407441 -16.068410748634534 -2 -3 0
6536 1927 2 -0.8472 17.58718416074698 13.99161766627748 -15.805273457245182 -1 -1 0
7456 2197 3 0.4236 14.298493312169146 13.565722005072432 -17.963401768927085 1 -2 0
5725 1686 3 0.4236 21.13354728938587 11.298820343316084 -20.46984504107382 0 -4 0
5348 1626 2 -0.8472 12.720478337083005 2.3778793647830705 -17.287404062410435 -1 -2 0
6409 1907 3 0.4236 10.53369787784225 12.87451937593461 -21.37599282548982 1 -1 0
7678 2238 2 -0.8472 17.20729325208261 9.494233454103382 -15.988620433356624 1 -2 0
186 0 1 -0.0003257938168169708 13.49 2.02 -25 0 0 0
221 0 1 -8.299058965653481e-05 19.17 14.32 -25 0 0 0
6474 1894 3 0.4236 13.692642964714205 5.116193285582935 -20.106289606640114 1 0 0
450 158 3 0.4236 16.8000655255714 4.500558736170265 -20.06222037434409 -1 -4 0
80 10 3 0.4236 16.213837886423693 9.866866791577978 -20.92150302535545 1 -2 0
493 96 3 0.4236 16.849703262348406 6.613079574901614 -15.675506458152674 -1 -4 0
907 313 3 0.4236 19.441785219760067 5.514882187879616 -17.987371598272695 0 -3 0
7457 2198 2 -0.8472 12.698076177216928 0.7305885284910096 -19.696164561537294 0 -2 0
3459 1065 2 -0.8472 19.194276977378454 12.428491627153576 -17.449230305373497 -2 -2 0
3760 1065 3 0.4236 18.522513134187623 13.11754579601532 -17.17731116511586 -2 -2 0
5215 1538 3 0.4236 14.660431030822071 11.923684492793438 -22.018599974562292 1 -2 0
359 99 3 0.4236 15.706429899639675 7.931049186873354 -17.314114922520996 1 -3 0
5269 1616 2 -0.8472 17.558032036681766 13.028195775507847 -20.98771218984414 1 -3 0
3581 1050 3 0.4236 13.60148508756524 10.119305999643364 -19.03215944149734 0 -1 0
9369 2646 3 0.4236 0.5517409805365776 1.874418606050502 -15.610289933260079 1 0 0
3645 1089 2 -0.8472 16.202315014761467 14.314185859753552 -18.77582457824136 -1 -3 0
4880 1385 2 -0.8472 18.396705621058103 3.426695330317269 -21.100463126126698 0 -3 0
4882 1385 3 0.4236 17.921481022640243 2.547263983129943 -21.12806090638738 0 -3 0
233 0 1 -0.0003879834636972004 14.91 11.86 -25 0 0 0
6473 1894 2 -0.8472 13.093779796461446 4.360513656800099 -19.84112737930825 1 0 0
3580 1050 2 -0.8472 14.366683157700423 10.526149776660606 -18.533210250797623 0 -1 0
246 10 2 -0.8472 15.911898959374861 10.786034760559879 -20.668593676716085 1 -2 0
1241 430 3 0.4236 11.729243889392816 0.7769991021443389 -21.399959400539213 0 -3 0
5266 1616 3 0.4236 18.53453871167978 12.814347173047905 -21.014255514900945 1 -3 0
7302 2147 3 0.4236 8.96606715842515 9.342090126325145 -15.133525120556019 -1 -1 0
3460 1065 3 0.4236 20.092700730790288 12.857553127662241 -17.542744790289305 -2 -2 0
357 99 2 -0.8472 14.721510260997904 8.048881982579438 -17.4407923341145 1 -3 0
5726 1686 3 0.4236 20.580355543628066 10.534083973796717 -21.80243015773347 0 -4 0
5267 1616 3 0.4236 17.04078931748384 12.198741838523597 -20.776832293766407 1 -3 0
4881 1385 3 0.4236 19.383021444553876 3.2747277281785383 -21.164378577269225 0 -3 0
6757 1984 3 0.4236 12.910760309146005 8.33174307118894 -16.583764125242883 0 -3 0
5073 1530 3 0.4236 16.342005167827672 1.0876653505043135 -20.661995515643984 0 -4 0
6475 1894 3 0.4236 12.94897323474479 4.3813139015497615 -18.85188700977713 1 0 0
229 0 1 -0.0001487065191517574 13.49 11.86 -25 0 0 0
6537 1927 3 0.4236 16.62358282830248 13.87481626243553 -15.564792100244333 -1 -1 0
3582 1050 3 0.4236 14.041668631403082 11.312637966523114 -18.00803866340058 0 -1 0
1977 662 3 0.4236 17.63023523854079 8.614207576485892 -19.78204629069962 0 -1 0
5321 1604 3 0.4236 11.285355435333358 8.943972572022016 -19.74921199073675 1 -4 0
8967 2555 3 0.4236 20.98320415271262 8.733029975336178 -18.163285815105976 0 -1 0
3098 956 2 -0.8472 18.203522244180704 9.659322201265637 -18.598094163668463 0 -2 0
3100 956 3 0.4236 17.89919717455064 9.331166626973616 -17.703836690884373 0 -2 0
5724 1686 2 -0.8472 20.62696875347752 11.411336319353422 -21.324668232737693 0 -4 0
8480 2455 2 -0.8472 19.20853889519242 6.032869927715688 -21.497736244502796 2 -2 0
4823 1344 3 0.4236 12.157033007643859 13.613353787112883 -17.42091492042997 1 -3 0
236 0 1 -0.0003452257327829593 17.04 8.17 -25 0 0 0
205 0 1 0.0004144471780452275 10.65 14.32 -25 0 0 0
8482 2455 3 0.4236 18.757445279091563 5.1490962747306765 -21.622069116147188 2 -2 0
185 0 1 0.0002594590352738413 11.36 13.09 -25 0 0 0
190 0 1 -0.0001373380490471922 14.91 2.02 -25 0 0 0
220 0 1 -0.0002508749441973973 19.88 10.63 -25 0 0 0
448 158 2 -0.8472 16.12947479240149 4.7313336439700855 -19.357201323634403 -1 -4 0
217 0 1 3.217620319847985e-06 17.75 14.32 -25 0 0 0
194 0 1 -7.176779890447942e-05 17.75 2.02 -25 0 0 0
210 0 1 -5.904456484870232e-05 15.62 3.25 -25 0 0 0
8481 2455 3 0.4236 19.62378871249227 6.07019265190056 -20.588794628617688 2 -2 0
1001 375 2 -0.8472 14.673957929641826 2.1718136840262083 -20.894061031458083 2 -2 0
1128 371 3 0.4236 14.271954826666269 7.156449159456203 -18.852018667532917 -2 -1 0
202 0 1 -0.000265717870208989 11.36 3.25 -25 0 0 0
181 0 1 -0.0001381042611639503 19.17 11.86 -25 0 0 0
206 0 1 -0.0002566312742207245 12.78 3.25 -25 0 0 0
203 0 1 -0.0002069120096210173 10.65 6.94 -25 0 0 0
197 0 1 -0.0001394619703688721 17.04 13.09 -25 0 0 0
5320 1604 3 0.4236 12.58823237821441 8.160870205390797 -20.345774874906077 1 -4 0
231 0 1 -0.0001579505989145658 14.91 4.48 -25 0 0 0
449 158 3 0.4236 15.520262456422607 5.447262405455153 -19.698238936151753 -1 -4 0
3149 2 3 0.4236 10.210961029493168 13.978075990264022 -18.219388450105665 1 -3 0
1975 662 2 -0.8472 17.04968164594403 8.136916087468995 -20.44170846688031 0 -1 0
3099 956 3 0.4236 18.60038798756825 10.572031862971599 -18.50083606994464 0 -2 0
5319 1604 2 -0.8472 12.199558435505796 9.05850200095697 -20.137951611637046 1 -4 0
215 0 1 -0.0002397683257795825 17.75 6.94 -25 0 0 0
5444 1607 3 0.4236 11.949702696894127 10.661670398246047 -20.842604377455093 0 -4 0
237 0 1 -0.000170213783037753 17.75 11.86 -25 0 0 0
180 0 1 -0.0004180251184522463 19.88 8.17 -25 0 0 0
7454 2197 2 -0.8472 13.752899671238847 13.05913350557294 -17.295796731904442 1 -2 0
199 0 1 -0.000151639916766456 19.17 2.02 -25 0 0 0
212 0 1 -0.0003476112881360984 15.62 10.63 -25 0 0 0
5775 313 2 -0.8472 19.92067062102631 5.886599914985174 -18.782667459311853 0 -3 0
207 0 1 -0.0002907889023492323 13.49 6.94 -25 0 0 0
1976 662 3 0.4236 17.621961040935197 7.604348157751897 -21.065301442424587 0 -1 0
222 0 1 -0.0009960660686139362 11.36 0.79 -25 0 0 0
204 0 1 -3.458593744226544e-05 11.36 10.63 -25 0 0 0
230 0 1 -0.0002702063652833873 15.62 0.79 -25 0 0 0
1129 371 3 0.4236 14.952215158025776 7.424426731278914 -20.31217624343874 -2 -1 0
8953 2548 2 -0.8472 20.88015576187214 8.615161560115203 -21.684980933777183 0 -1 0
219 0 1 -0.00024976690217495 19.17 6.94 -25 0 0 0
187 0 1 -0.0002257711018934512 12.78 5.71 -25 0 0 0
225 0 1 9.565520798267608e-05 10.65 11.86 -25 0 0 0
6458 1882 3 0.4236 17.335777904039933 4.814402385455778 -16.439841526198624 1 -2 0
5346 1626 3 0.4236 13.707348649480322 2.402600056558989 -17.447006287392053 -1 -2 0
1639 554 3 0.4236 0.25454029545571916 12.133461323700645 -18.67668491202695 0 0 0
224 0 1 -0.0002229612610855147 11.36 8.17 -25 0 0 0
5445 1607 3 0.4236 12.415884848937155 12.125288630791035 -21.39678990312509 0 -4 0
226 0 1 -0.0006815777775350012 12.78 0.79 -25 0 0 0
216 0 1 -0.000290440418929949 17.04 10.63 -25 0 0 0
228 0 1 -0.0002628607323438428 12.78 8.17 -25 0 0 0
784 227 2 -0.8472 15.265285692130831 2.9364747316896436 -17.537395712444834 2 -4 0
247 10 3 0.4236 15.360493414104319 10.738361998546049 -19.835719742045416 1 -2 0
6456 1882 2 -0.8472 17.755240624482404 5.4383597843281795 -17.099181103679832 1 -2 0
6457 1882 3 0.4236 17.41153171505461 5.234861555329475 -18.015942617253405 1 -2 0
208 0 1 -9.257023764835106e-05 12.78 10.63 -25 0 0 0
218 0 1 -0.0002636175769402883 19.88 3.25 -25 0 0 0
691 247 3 0.4236 8.86821659983913 0.041615741820868316 -16.510598265346715 -1 -4 0
8954 2548 3 0.4236 20.77714301995309 8.380882587206372 -20.718284757194578 0 -1 0
1127 371 2 -0.8472 14.435951047799112 6.770060604622722 -19.75965791343408 -2 -1 0
184 0 1 -0.0001804491634565427 10.65 9.4 -25 0 0 0
183 0 1 -0.0001627313932561359 11.36 5.71 -25 0 0 0
189 0 1 5.814418164245483e-07 12.78 13.09 -25 0 0 0
3647 1089 3 0.4236 16.829075317783868 13.966294926653976 -19.473064971634493 -1 -3 0
201 0 1 -0.0003769988744171444 19.17 9.4 -25 0 0 0
193 0 1 -0.0003746798165489704 15.62 13.09 -25 0 0 0
223 0 1 -6.854281384943155e-05 10.65 4.48 -25 0 0 0
195 0 1 -0.0001606944847455049 17.04 5.71 -25 0 0 0
179 0 1 -0.0001274044130698189 19.17 4.48 -25 0 0 0
227 0 1 -0.0001964441103897494 13.49 4.48 -25 0 0 0
182 0 1 -0.0005748248593115127 10.65 2.02 -25 0 0 0
191 0 1 -0.0002269849386481331 15.62 5.71 -25 0 0 0
213 0 1 -0.0002483227929864701 14.91 14.32 -25 0 0 0
209 0 1 -0.0001021532608839436 13.49 14.32 -25 0 0 0
234 0 1 -0.0002140346551899524 17.04 0.79 -25 0 0 0
8965 2555 2 -0.8472 20.529780509600666 8.456745226048604 -19.010678413695963 0 -1 0
214 0 1 -2.35695650531758e-05 17.04 3.25 -25 0 0 0
235 0 1 -5.737238270714877e-05 17.75 4.48 -25 0 0 0
1003 375 3 0.4236 14.160264042239527 1.4785341778083574 -20.388606352535618 2 -2 0
178 0 1 -0.0002982333558556589 19.88 0.79 -25 0 0 0
5776 313 3 0.4236 20.418617417698595 6.711858546953109 -18.5162131799517 0 -3 0
786 227 3 0.4236 15.99100873913315 3.024061413957289 -16.85500685778094 2 -4 0
188 0 1 -0.0002478587306834524 13.49 9.4 -25 0 0 0
200 0 1 -0.0002019766883439216 19.88 5.71 -25 0 0 0
5214 1538 2 -0.8472 13.962751791270998 12.63992009011652 -22.00277443014696 1 -2 0
5613 1707 2 -0.8472 21.030392548166073 3.065250008037111 -21.409686214618286 0 -1 0
5443 1607 2 -0.8472 11.629501120157416 11.55006157972065 -21.171589876760468 0 -4 0
232 0 1 -0.0003477473884070848 15.62 8.17 -25 0 0 0
196 0 1 -0.000350694928851843 17.75 9.4 -25 0 0 0
198 0 1 -9.953290438628932e-05 19.88 13.09 -25 0 0 0
2117 1927 3 0.4236 17.99381624080269 14.693838252578066 -15.220861718340329 -1 -1 0
2052 630 2 -0.8472 2.087382051493458 1.1524922566378493 -6.26519337964083 1 -2 0
2053 630 3 0.4236 2.019206209361916 0.8087015460393511 -5.328623537118694 1 -2 0
739 277 3 0.4236 0.7255736611759646 11.47853526739694 -13.14827509407056 1 -1 0
3937 1249 3 0.4236 2.811865596129002 7.642904828334806 -12.162154247498108 0 -2 0
96 21 2 -0.8472 1.412272154349067 5.0241629000195 -8.697481375034545 1 -1 0
7228 2166 3 0.4236 0.19422838899085454 5.145080426641539 -14.451595540660417 2 -3 0
6401 1846 3 0.4236 3.7204500898669033 0.9537776976999284 -10.9897907768133 0 -1 0
98 21 3 0.4236 1.722823870770076 4.791926634711287 -9.619232066332515 1 -1 0
6400 1846 2 -0.8472 3.286894458262672 1.52812903094443 -11.684160992981006 0 -1 0
8994 1249 3 0.4236 4.200019754275074 7.119202629924361 -11.479960203638004 0 -2 0
3590 1056 3 0.4236 5.113736615926017 2.888382833066946 -8.707432123222803 1 -1 0
3134 976 3 0.4236 6.727327606107206 7.541748137844722 -8.836217193746789 2 -2 0
3589 1056 2 -0.8472 4.355507684297543 3.3166334685279195 -8.215812087785942 1 -1 0
2473 813 2 -0.8472 7.388689145249642 2.4335654174356187 -10.924127862754498 1 -1 0
8995 1249 2 -0.8472 3.694490708072742 7.925672566553745 -11.786634934944807 0 -2 0
3591 1056 3 0.4236 3.776104276535349 2.607623381342455 -7.813821524830697 1 -1 0
7864 2306 2 -0.8472 5.13887641655255 2.482135987483337 -13.418914545090749 -1 0 0
514 203 2 -0.8472 4.81775425574904 5.838387921229216 -10.410181898811079 -1 -3 0
2474 813 3 0.4236 7.519869629831816 3.3013185990050373 -11.403497050697437 1 -1 0
6402 1846 3 0.4236 3.9908544166028834 1.9423135455994731 -12.261130979633036 0 -1 0
2921 876 3 0.4236 0.8128362800706536 6.56592055084377 -13.157285320040872 0 -2 0
7865 2306 3 0.4236 5.787636081236407 2.596379565637707 -12.666546456307154 -1 0 0
7281 2134 2 -0.8472 6.5502480241419985 1.0497268317656279 -8.406220512560926 0 -2 0
7282 2134 3 0.4236 7.112009031916738 1.5402717678291518 -9.072396375909404 0 -2 0
7149 2134 3 0.4236 6.690146913327894 1.4436980702846256 -7.49780702075501 0 -2 0
867 203 3 0.4236 4.820187403779393 6.341498931232495 -9.545962654214009 -1 -3 0
148 56 3 0.4236 6.246316817389573 5.095688975721939 -11.898833107136202 3 -1 0
8180 2378 3 0.4236 0.22160226658258958 6.732148009542502 -9.361057578604427 0 -3 0
505 203 3 0.4236 4.136449646084235 5.10757557533536 -10.368497060461111 -1 -3 0
5045 1498 3 0.4236 2.787352237959136 12.811833087244404 -13.446192348793097 1 -1 0
1246 434 3 0.4236 2.2164401950832433 6.103583531914899 -7.482035774905418 1 -5 0
8921 2526 3 0.4236 3.930474536037434 9.171535559289259 -13.351932805579711 0 -4 0
7231 2166 2 -0.8472 0.07533124155757949 6.126651097465049 -14.601208651325791 2 -3 0
3144 982 3 0.4236 3.448418621477647 9.558995054153234 -8.779068097511226 2 -2 0
2475 813 3 0.4236 8.00745747821379 1.746003233636569 -11.304106362280674 1 -1 0
149 56 3 0.4236 7.19976770277817 4.850526137556564 -13.201696583207431 3 -1 0
3868 1152 2 -0.8472 4.055095735335992 12.275257887782148 -7.292706028828156 -1 -2 0
1245 434 2 -0.8472 2.28866700153837 6.541443702459736 -6.58589717782665 1 -5 0
5172 1498 2 -0.8472 1.8569523276936382 12.950086067675356 -13.10671899147714 1 -1 0
1247 434 3 0.4236 3.0522975455070696 6.140673729457754 -6.079682894124051 1 -5 0
5313 1610 3 0.4236 17.484898002160385 13.623776249434709 -9.093473174356118 -3 -1 0
7687 859 3 0.4236 20.5505027932769 11.700920070763072 -12.052883098534593 -1 -3 0
5611 1706 3 0.4236 20.05925032904967 11.25896879758719 -14.223032716534169 0 -3 0
3302 976 2 -0.8472 7.718946702308368 7.668122846991657 -8.863127060275232 2 -2 0
3982 1204 3 0.4236 20.842332258621518 6.455977497972303 -10.269982071723792 2 -2 0
3303 976 3 0.4236 7.9892043300000655 8.333211172009362 -8.166978652975518 2 -2 0
5610 1706 2 -0.8472 19.659653376799035 10.805667710599211 -15.019806254616375 0 -3 0
147 56 2 -0.8472 7.178911155380499 5.1657229702139436 -12.252899338832162 3 -1 0
3145 982 3 0.4236 2.2266041534379566 9.492131597866177 -7.697714327859342 2 -2 0
4967 1525 2 -0.8472 10.126589000602351 10.633436862716025 -10.969725014313504 1 -1 0
4809 1336 3 0.4236 9.821877200407416 11.998636599738662 -9.594773398600907 2 -2 0
8135 2348 3 0.4236 8.258762713722183 6.396052844461651 -12.481902465446636 1 -3 0
3870 1152 3 0.4236 4.900413476785755 11.741000462929996 -7.290074191445846 -1 -2 0
8133 2348 2 -0.8472 8.934150299632899 7.047102871876769 -12.828299062081626 1 -3 0
9353 2634 3 0.4236 7.000673822060109 10.462116822401526 -6.6143910449778875 2 -3 0
1151 384 3 0.4236 15.156769201435985 0.16537382068043135 -14.401933862887738 2 -2 0
372 110 3 0.4236 6.243097654952374 5.385781082844605 -5.775134323331145 0 -2 0
2922 876 3 0.4236 1.5186117141170532 5.789932067015105 -11.905747343911209 0 -2 0
855 276 3 0.4236 1.5964330287266484 13.965143386193828 -8.401222589140424 1 -4 0
2920 876 2 -0.8472 1.1702640779511726 6.66974692768485 -12.229133536639768 0 -2 0
2028 612 2 -0.8472 5.060592898486714 7.229511675447713 -8.02599359523183 2 -2 0
2030 612 3 0.4236 4.193055967737932 7.71844383944078 -7.934748465089436 2 -2 0