LAMMPS (17 Apr 2024)
OMP_NUM_THREADS environment is not set. Defaulting to 1 thread. (src/comm.cpp:98)
  using 1 OpenMP thread(s) per MPI task
# MD of SPC/E water between rigid walls

variable        temp          equal  300
variable        dt            equal  2.0
variable        Nw            equal  2651
variable        l          loop 10
variable d equal 42.6*44.2712*2.6/720
# set wall time limit to ensure we write out a restart file at the end
# timer timeout 47:30:00 every 1000

#======General Settings =======

processors * * *

units               real
boundary            p p f
atom_style          full # for SPC/E


# global model settings
pair_style      lj/cut/coul/long 14.0 # Angstrom!!
pair_modify     shift yes mix arithmetic # Lorentz-Berthelot
kspace_style    pppm/electrode 1e-6
kspace_modify   slab 3 # vacuum layer width
bond_style      harmonic
angle_style     harmonic

region box block 0 42.6 0 44.2712 -25.1 25.1
create_box      6 box                                       bond/types 1                                angle/types 1                               extra/bond/per/atom 2                       extra/angle/per/atom 1                      extra/special/per/atom 2
Created orthogonal box = (0 0 -25.1) to (42.6 44.2712 25.1)
  2 by 3 by 5 MPI processor grid

# prepare SPC/E topology
molecule        spce spce.txt
Read molecule template spce:
# SPC/E water molecule
  1 molecules
  0 fragments
  3 atoms with max type 3
  2 bonds with max type 1
  1 angles with max type 1
  0 dihedrals with max type 0
  0 impropers with max type 0

# Read xyz file
read_dump graphene.xyz 0  x y z box no add yes format xyz #name frame_number box format add
Adding 'type' field to requested per-atom fields
Scanning dump file ...
Reading snapshot from dump file ...
  orthogonal box = (0 0 -25.1) to (42.6 44.2712 25.1)
  0 atoms before read
  1440 atoms in snapshot
  0 atoms purged
  0 atoms replaced
  0 atoms trimmed
  1440 atoms added
  1440 atoms after read

group           wall type 1 6
1440 atoms in group wall

#====== Forcefield =======
mass 1 12.0110 # carbon
mass 2 15.99940 # oxygen
mass 3 1.00800 # hydrogen
mass 4 22.9898 # Na
mass 5 35.453 # Cl
mass 6 12.0110 # carbon2

pair_coeff 1 1 0.0663 3.5812 # graphene-graphene
pair_coeff 2 2 0.1553 3.1656 # oxygen-oxygen
pair_coeff 3 3 0.0000 0.0000 # hydrogen-hydrogen
pair_coeff 4 4 0.09999999999999999 2.584 # Na-Na
pair_coeff 5 5 0.09999999999999999 4.401 # Cl-Cl
pair_coeff 6 6 0.0663 3.5812 # graphene2-graphene2

# spce rigid settings
bond_coeff      1     1000       1.0
angle_coeff     1     100       109.47

velocity        wall set 0.0 0.0 0.0
region upper block $(xlo) $(xhi) $(ylo) $(yhi) 0 $(zhi)
region upper block 0 $(xhi) $(ylo) $(yhi) 0 $(zhi)
region upper block 0 42.600000000000001421 $(ylo) $(yhi) 0 $(zhi)
region upper block 0 42.600000000000001421 0 $(yhi) 0 $(zhi)
region upper block 0 42.600000000000001421 0 44.27120000000000033 0 $(zhi)
region upper block 0 42.600000000000001421 0 44.27120000000000033 0 25.100000000000001421
region lower block $(xlo) $(xhi) $(ylo) $(yhi) $(zlo) 0
region lower block 0 $(xhi) $(ylo) $(yhi) $(zlo) 0
region lower block 0 42.600000000000001421 $(ylo) $(yhi) $(zlo) 0
region lower block 0 42.600000000000001421 0 $(yhi) $(zlo) 0
region lower block 0 42.600000000000001421 0 44.27120000000000033 $(zlo) 0
region lower block 0 42.600000000000001421 0 44.27120000000000033 -25.100000000000001421 0
group lowerAll region lower
720 atoms in group lowerAll
group upperAll region upper
720 atoms in group upperAll
group lower intersect wall lowerAll
720 atoms in group lower
group upper intersect wall upperAll
720 atoms in group upper
group lowerAll delete
group upperAll delete
region upper delete
region lower delete
fix freeze_lower lower setforce 0.0 0.0 0.0
fix freeze_upper upper setforce 0.0 0.0 0.0

#set group upper mol 1
#set group lower mol 2

#######################################################################
#                          Setup a few ions                           #
#######################################################################
variable xpos equal random(0,$(xhi),42)
variable xpos equal random(0,42.600000000000001421,42)
variable ypos equal random(0,$(yhi),42)
variable ypos equal random(0,44.27120000000000033,42)
variable zpos equal random($(zlo)+3,$(zhi)-3,42)
variable zpos equal random(-25.100000000000001421+3,$(zhi)-3,42)
variable zpos equal random(-25.100000000000001421+3,25.100000000000001421-3,42)

# create Na
create_atoms 4 single ${xpos} ${ypos} ${zpos}
create_atoms 4 single 17.9320660829544 ${ypos} ${zpos}
create_atoms 4 single 17.9320660829544 2.36691259689331 ${zpos}
create_atoms 4 single 17.9320660829544 2.36691259689331 10.5902015686035
Created 1 atoms
  using lattice units in orthogonal box = (0 0 -25.1) to (42.6 44.2712 25.1)
  create_atoms CPU = 0.000 seconds
create_atoms 4 single ${xpos} ${ypos} ${zpos}
create_atoms 4 single 26.2941858172417 ${ypos} ${zpos}
create_atoms 4 single 26.2941858172417 35.3006726100922 ${zpos}
create_atoms 4 single 26.2941858172417 35.3006726100922 -21.6539248108864
Created 1 atoms
  using lattice units in orthogonal box = (0 0 -25.1) to (42.6 44.2712 25.1)
  create_atoms CPU = 0.000 seconds
create_atoms 4 single ${xpos} ${ypos} ${zpos}
create_atoms 4 single 15.6054027199745 ${ypos} ${zpos}
create_atoms 4 single 15.6054027199745 15.8112672562599 ${zpos}
create_atoms 4 single 15.6054027199745 15.8112672562599 1.864000415802
Created 1 atoms
  using lattice units in orthogonal box = (0 0 -25.1) to (42.6 44.2712 25.1)
  create_atoms CPU = 0.000 seconds
create_atoms 4 single ${xpos} ${ypos} ${zpos}
create_atoms 4 single 16.1955487132072 ${ypos} ${zpos}
create_atoms 4 single 16.1955487132072 26.2547107264996 ${zpos}
create_atoms 4 single 16.1955487132072 26.2547107264996 14.9622463583946
Created 1 atoms
  using lattice units in orthogonal box = (0 0 -25.1) to (42.6 44.2712 25.1)
  create_atoms CPU = 0.000 seconds
set type 4 charge 1.
Setting atom values ...
  4 settings made for charge

# create Cl
create_atoms 5 single ${xpos} ${ypos} ${zpos}
create_atoms 5 single 23.5632809042931 ${ypos} ${zpos}
create_atoms 5 single 23.5632809042931 36.666808258009 ${zpos}
create_atoms 5 single 23.5632809042931 36.666808258009 -2.28963959217072
Created 1 atoms
  using lattice units in orthogonal box = (0 0 -25.1) to (42.6 44.2712 25.1)
  create_atoms CPU = 0.000 seconds
create_atoms 5 single ${xpos} ${ypos} ${zpos}
create_atoms 5 single 1.67083951234818 ${ypos} ${zpos}
create_atoms 5 single 1.67083951234818 15.8431171998978 ${zpos}
create_atoms 5 single 1.67083951234818 15.8431171998978 12.3860389113426
Created 1 atoms
  using lattice units in orthogonal box = (0 0 -25.1) to (42.6 44.2712 25.1)
  create_atoms CPU = 0.000 seconds
create_atoms 5 single ${xpos} ${ypos} ${zpos}
create_atoms 5 single 9.64388408660889 ${ypos} ${zpos}
create_atoms 5 single 9.64388408660889 36.6125762744427 ${zpos}
create_atoms 5 single 9.64388408660889 36.6125762744427 -18.0695293188095
Created 1 atoms
  using lattice units in orthogonal box = (0 0 -25.1) to (42.6 44.2712 25.1)
  create_atoms CPU = 0.000 seconds
create_atoms 5 single ${xpos} ${ypos} ${zpos}
create_atoms 5 single 11.1462733268738 ${ypos} ${zpos}
create_atoms 5 single 11.1462733268738 2.01072625951767 ${zpos}
create_atoms 5 single 11.1462733268738 2.01072625951767 10.0015774846077
Created 1 atoms
  using lattice units in orthogonal box = (0 0 -25.1) to (42.6 44.2712 25.1)
  create_atoms CPU = 0.000 seconds
set type 5 charge -1.
Setting atom values ...
  4 settings made for charge

# *********************************************************
# setup water
# *********************************************************
# include only waters- not rigid slab

lattice custom 4.5 a1 0.8 0.0 0.0 a2 0.0 0.8 0.0 a3 0.0 0.0 .6 basis 0.0 0.0 0.0
Lattice spacing in x,y,z = 3.6 3.6 2.7
region insert block $(xlo) $(xhi) $(ylo) $(yhi) $(-8.1) $(8.1)
region insert block 0 $(xhi) $(ylo) $(yhi) $(-8.1) $(8.1)
region insert block 0 42.600000000000001421 $(ylo) $(yhi) $(-8.1) $(8.1)
region insert block 0 42.600000000000001421 0 $(yhi) $(-8.1) $(8.1)
region insert block 0 42.600000000000001421 0 44.27120000000000033 $(-8.1) $(8.1)
region insert block 0 42.600000000000001421 0 44.27120000000000033 -8.0999999999999996447 $(8.1)
region insert block 0 42.600000000000001421 0 44.27120000000000033 -8.0999999999999996447 8.0999999999999996447
create_atoms 0 region insert mol spce 23786
Created 7956 atoms
  using lattice units in orthogonal box = (0 0 -25.1) to (42.6 44.2712 25.1)
  create_atoms CPU = 0.002 seconds
#create_atoms 0 random 1 9872 insert mol spce 1786
group           h2o type 2 3
7956 atoms in group h2o
# evaporate waters to get desired number
variable        Nd  equal $(count(h2o)/3 - v_Nw)
variable        Nd  equal 1
print "System has $(count(h2o)/3) waters. Removing ${Nd}."
System has 2652 waters. Removing 1.
fix 1 h2o evaporate 1 $(v_Nd*3) box 12496 molecule yes
fix 1 h2o evaporate 1 3 box 12496 molecule yes
run 1

CITE-CITE-CITE-CITE-CITE-CITE-CITE-CITE-CITE-CITE-CITE-CITE-CITE

Your simulation uses code contributions which should be cited:

- kspace_style pppm/electrode command:

@article{Ahrens2021,
author = {Ahrens-Iwers, Ludwig J.V. and Mei{\ss}ner, Robert H.},
doi = {10.1063/5.0063381},
title = {{Constant potential simulations on a mesh}},
journal = {Journal of Chemical Physics},
year = {2021}
volume = {155},
pages = {104104},
}
CITE-CITE-CITE-CITE-CITE-CITE-CITE-CITE-CITE-CITE-CITE-CITE-CITE

WARNING: No fixes with time integration, atoms won't move (src/verlet.cpp:60)
PPPM/electrode initialization ...
  using 12-bit tables for long-range coulomb (src/kspace.cpp:342)
  G vector (1/distance) = 0.23783361
  grid = 40 45 100
  stencil order = 5
  estimated absolute RMS force accuracy = 0.00036359168
  estimated relative force accuracy = 1.0949456e-06
  using double precision FFTW3
  3d grid and FFT values/proc = 45144 22200
Generated 15 of 15 mixed pair_coeff terms from arithmetic mixing rule
Neighbor list info ...
  update: every = 1 steps, delay = 0 steps, check = yes
  max neighbors/atom: 2000, page size: 100000
  master list distance cutoff = 16
  ghost atom cutoff = 16
  binsize = 8, bins = 6 6 7
  1 neighbor lists, perpetual/occasional/extra = 1 0 0
  (1) pair lj/cut/coul/long, perpetual
      attributes: half, newton on
      pair build: half/bin/newton
      stencil: half/bin/3d
      bin: standard
Per MPI rank memory allocation (min/avg/max) = 8.83 | 9.767 | 11.78 Mbytes
   Step          Temp          E_pair         E_mol          TotEng         Press     
         0   0              1.127601e+11   0.0030706219   1.127601e+11   3.2666814e+11
         1   0              1.127601e+11   0.0030694641   1.127601e+11   3.2666814e+11
Loop time of 0.0309755 on 30 procs for 1 steps with 9401 atoms

Performance: 2.789 ns/day, 8.604 hours/ns, 32.284 timesteps/s, 303.498 katom-step/s
94.9% CPU use with 30 MPI tasks x 1 OpenMP threads

MPI task timing breakdown:
Section |  min time  |  avg time  |  max time  |%varavg| %total
---------------------------------------------------------------
Pair    | 0.003799   | 0.0076737  | 0.012276   |   2.5 | 24.77
Bond    | 1.203e-05  | 1.8436e-05 | 2.6301e-05 |   0.0 |  0.06
Kspace  | 0.0058091  | 0.010397   | 0.014303   |   2.1 | 33.57
Neigh   | 0.010948   | 0.011042   | 0.011186   |   0.1 | 35.65
Comm    | 0.0012785  | 0.0014502  | 0.0015518  |   0.2 |  4.68
Output  | 8.3342e-05 | 0.00010969 | 0.00016408 |   0.0 |  0.35
Modify  | 0.00014844 | 0.00015502 | 0.00016401 |   0.0 |  0.50
Other   |            | 0.0001291  |            |       |  0.42

Nlocal:        313.367 ave         381 max         247 min
Histogram: 2 3 3 7 1 1 2 7 2 2
Nghost:        7919.67 ave        9771 max        6223 min
Histogram: 12 0 0 0 0 0 8 4 4 2
Neighs:         221774 ave      313669 max      141876 min
Histogram: 3 2 2 4 6 4 4 3 1 1

Total # of neighbors = 6653223
Ave neighs/atom = 707.71439
Ave special neighs/atom = 1.6919477
Neighbor list builds = 1
Dangerous builds = 0
unfix 1
#region box delete
print "System now has $(count(h2o)/3) waters."
System now has 2651 waters.
reset_atoms id
Resetting atom IDs ...
PPPM/electrode initialization ...
  using 12-bit tables for long-range coulomb (src/kspace.cpp:342)
  G vector (1/distance) = 0.23783319
  grid = 40 45 100
  stencil order = 5
  estimated absolute RMS force accuracy = 0.00036351831
  estimated relative force accuracy = 1.0947246e-06
  using double precision FFTW3
  3d grid and FFT values/proc = 45144 22200
Generated 15 of 15 mixed pair_coeff terms from arithmetic mixing rule
Finding 1-2 1-3 1-4 neighbors ...
  special bond factors lj:    0        0        0       
  special bond factors coul:  0        0        0       
     2 = max # of 1-2 neighbors
     1 = max # of 1-3 neighbors
     1 = max # of 1-4 neighbors
     5 = max # of special neighbors
  special bonds CPU = 0.002 seconds


reset_timestep 0
neighbor        2.0 bin
neigh_modify    every 1 delay 10 check yes
neigh_modify    exclude type 1 1
neigh_modify    exclude type 6 6
neigh_modify    exclude type 1 6
timestep        ${dt}
timestep        2

# Minimization run
thermo 10
min_style cg
minimize 1.0e-4 1.0e-6 1000 10000
Switching to 'neigh_modify every 1 delay 0 check yes' setting during minimization
PPPM/electrode initialization ...
  using 12-bit tables for long-range coulomb (src/kspace.cpp:342)
  G vector (1/distance) = 0.23783319
  grid = 40 45 100
  stencil order = 5
  estimated absolute RMS force accuracy = 0.00036351831
  estimated relative force accuracy = 1.0947246e-06
  using double precision FFTW3
  3d grid and FFT values/proc = 45144 22200
Generated 15 of 15 mixed pair_coeff terms from arithmetic mixing rule
WARNING: Neighbor exclusions used with KSpace solver may give inconsistent Coulombic energies (src/neighbor.cpp:654)
Per MPI rank memory allocation (min/avg/max) = 10.08 | 11.02 | 13.03 Mbytes
   Step          Temp          E_pair         E_mol          TotEng         Press     
         0   0              1.1272222e+11  0.0030694641   1.1272222e+11  3.2655817e+11
        10   0              726074.34      16490.751      742565.09      2137399.9    
        20   0              13172.738      3742.4141      16915.152      51259.655    
        30   0             -1143.5731      486.9806      -656.59245      24468.044    
        40   0             -11116.179      468.69305     -10647.486      12661.386    
        50   0             -19276.94       1729.556      -17547.384     -13329.365    
        60   0             -22862.695      709.03887     -22153.656     -327.69406    
        70   0             -26071.978      786.63087     -25285.347      1057.0563    
        80   0             -28446.981      990.5522      -27456.429     -6177.729     
        90   0             -30170.382      970.58253     -29199.8       -6253.5178    
       100   0             -31436.091      1021.3586     -30414.733     -5529.4392    
       110   0             -32530.287      1086.7899     -31443.497     -7249.8585    
       120   0             -33286.955      1033.5045     -32253.45      -7217.8607    
       130   0             -33730.123      1018.7444     -32711.378     -7129.9068    
       140   0             -34011.139      935.52819     -33075.611     -4506.9969    
       150   0             -34591.644      1103.6253     -33488.019     -7518.7038    
       160   0             -34845.728      1076.8694     -33768.858     -7018.1291    
       170   0             -35159.929      1116.6139     -34043.316     -7390.012     
       180   0             -35386.37       1109.2853     -34277.084     -7208.7691    
       190   0             -35686.816      1204.1449     -34482.671     -8455.1634    
       200   0             -35793.557      1121.1037     -34672.454     -6407.4497    
       210   0             -36022.546      1173.7297     -34848.817     -7264.4806    
       220   0             -36108.345      1117.5074     -34990.838     -6326.2759    
       227   0             -36213.131      1128.3117     -35084.819     -6122.9708    
Loop time of 7.14611 on 30 procs for 227 steps with 9401 atoms

94.5% CPU use with 30 MPI tasks x 1 OpenMP threads

Minimization stats:
  Stopping criterion = energy tolerance
  Energy initial, next-to-last, final = 
      112722218571.211  -35081.4712559166  -35084.8193544784
  Force two-norm initial, final = 2.9555983e+12 103.91429
  Force max component initial, final = 1.7853172e+12 22.835504
  Final line search alpha, max atom move = 0.003511616 0.08018952
  Iterations, force evaluations = 227 397

MPI task timing breakdown:
Section |  min time  |  avg time  |  max time  |%varavg| %total
---------------------------------------------------------------
Pair    | 1.3044     | 2.9191     | 4.2892     |  49.0 | 40.85
Bond    | 0.0035018  | 0.006402   | 0.0089935  |   1.4 |  0.09
Kspace  | 2.2804     | 3.6607     | 5.255      |  43.9 | 51.23
Neigh   | 0.19961    | 0.20085    | 0.20272    |   0.2 |  2.81
Comm    | 0.25455    | 0.30633    | 0.34577    |   4.9 |  4.29
Output  | 0.0021192  | 0.0021663  | 0.0028082  |   0.3 |  0.03
Modify  | 0.00075981 | 0.0012798  | 0.0020732  |   0.9 |  0.02
Other   |            | 0.04923    |            |       |  0.69

Nlocal:        313.367 ave         380 max         248 min
Histogram: 3 2 5 3 1 5 1 2 7 1
Nghost:        7769.03 ave        9397 max        6138 min
Histogram: 12 0 0 0 0 0 0 12 0 6
Neighs:         214219 ave      277251 max      118208 min
Histogram: 1 4 1 0 2 4 3 9 4 2

Total # of neighbors = 6426584
Ave neighs/atom = 683.60642
Ave special neighs/atom = 1.6919477
Neighbor list builds = 10
Dangerous builds = 0

# setup nvt for ions and water
group           solvent type 2 3 4 5
7961 atoms in group solvent
compute watertemp solvent temp
velocity solvent create 300.0 4928459 rot yes dist gaussian

# ======== set up NVT integration ========
# rigid constraints with thermostat
fix             wshake h2o shake 0.0001 50 0 b 1 a 1 mol spce
Finding SHAKE clusters ...
       0 = # of size 2 clusters
       0 = # of size 3 clusters
       0 = # of size 4 clusters
    2651 = # of frozen angles
  find clusters CPU = 0.001 seconds

fix             mynvt solvent nvt temp ${temp} ${temp} $(100.0*v_dt)
fix             mynvt solvent nvt temp 300 ${temp} $(100.0*v_dt)
fix             mynvt solvent nvt temp 300 300 $(100.0*v_dt)
fix             mynvt solvent nvt temp 300 300 200
fix_modify      mynvt temp watertemp
WARNING: Temperature for fix modify is not for group all (src/fix_nh.cpp:1397)
thermo_style custom step pe ke ecoul elong evdwl c_watertemp # water temp
label loop_start
    variable l_tf equal ${l}/2
    variable l_tf equal 1/2
    # fix id group1 electrode/conp psi1 eta couple group2 psi2 write_inv
    # fix conp1 lower electrode/conp 0.0 5 couple upper 0.0 write_inv inv.out etypes 1*6 # Write call to not have to determine the matrix twice
    fix conp1 lower electrode/conp 0.0 2.925 couple upper 0.0# Write call to not have to determine the matrix twice
1440 atoms in group conp_group
    fix_modify conp1 tf 1 ${l_tf} ${d}
    fix_modify conp1 tf 1 0.5 ${d}
    fix_modify conp1 tf 1 0.5 6.81038626666667
    fix_modify conp1 tf 6 ${l_tf} ${d}
    fix_modify conp1 tf 6 0.5 ${d}
    fix_modify conp1 tf 6 0.5 6.81038626666667
    # fix conp1 lower electrode/conp 0.0 5 couple upper 0.0 read_inv inv.out # Write call to not have to determine the matrix twice

    # ======== equilibrate for ? ns ========
    reset_timestep 0
    thermo 50
    # dump equilxtc h2o xtc 50 equil.xtc
    run 500 # 1 ps, ~ correlation time of spce water

CITE-CITE-CITE-CITE-CITE-CITE-CITE-CITE-CITE-CITE-CITE-CITE-CITE

Your simulation uses code contributions which should be cited:

- fix electrode command:

@article{Ahrens2022
author = {Ahrens-Iwers, Ludwig J.V. and Janssen, Mahijs and Tee, Shern R. and Mei{\ss}ner, Robert H.},
doi = {10.1063/5.0099239},
title = {{ELECTRODE: An electrochemistry package for LAMMPS}},
journal = {The Journal of Chemical Physics},
year = {2022}
volume = {157},
pages = {084801},
}
CITE-CITE-CITE-CITE-CITE-CITE-CITE-CITE-CITE-CITE-CITE-CITE-CITE

PPPM/electrode initialization ...
  using 12-bit tables for long-range coulomb (src/kspace.cpp:342)
  G vector (1/distance) = 0.23783319
  grid = 40 45 100
  stencil order = 5
  estimated absolute RMS force accuracy = 0.00036351831
  estimated relative force accuracy = 1.0947246e-06
  using double precision FFTW3
  3d grid and FFT values/proc = 45144 22200
Generated 15 of 15 mixed pair_coeff terms from arithmetic mixing rule
WARNING: Neighbor exclusions used with KSpace solver may give inconsistent Coulombic energies (src/neighbor.cpp:654)
Neighbor list info ...
  update: every = 1 steps, delay = 10 steps, check = yes
  max neighbors/atom: 2000, page size: 100000
  master list distance cutoff = 16
  ghost atom cutoff = 16
  binsize = 8, bins = 6 6 7
  2 neighbor lists, perpetual/occasional/extra = 2 0 0
  (1) pair lj/cut/coul/long, perpetual
      attributes: half, newton on
      pair build: half/bin/newton
      stencil: half/bin/3d
      bin: standard
  (2) fix electrode/conp, perpetual, copy from (1)
      attributes: half, newton on
      pair build: copy
      stencil: none
      bin: none
WARNING: System is not charge neutral, net charge = -0.54205132 (src/kspace.cpp:327)
Per MPI rank memory allocation (min/avg/max) = 26.61 | 27.81 | 29.57 Mbytes
   Step         PotEng         KinEng         E_coul         E_long         E_vdwl      c_watertemp  
         0  -36235.364      7118.1744      85170.821     -127467.7       6061.5157      449.80222    
        50  -31577.079      2518.5193      91087.078     -127465.71      4801.5498      159.14693    
       100  -31643.584      2802.0977      90778.389     -127458.34      5036.3692      177.06643    
       150  -31673.735      3100.5594      90354.468     -127456.18      5427.9767      195.92643    
       200  -31613.709      3336.9087      90389.756     -127460.94      5457.4742      210.8615     
       250  -31518.453      3555.2855      90488.261     -127461.76      5455.0453      224.66088    
       300  -31268.078      3630.7183      90750.476     -127463.58      5445.03        229.42753    
       350  -31071.618      3765.2849      91202.748     -127457.72      5183.3535      237.93088    
       400  -30952.539      3976.5547      91149.72      -127460.09      5357.8333      251.28116    
       450  -30869.326      4221.1057      91155.659     -127456.87      5431.8811      266.73451    
       500  -30606.504      4275.4116      91620.688     -127458.23      5231.0335      270.16613    
Loop time of 13.276 on 30 procs for 500 steps with 9401 atoms

Performance: 6.508 ns/day, 3.688 hours/ns, 37.662 timesteps/s, 354.060 katom-step/s
94.3% CPU use with 30 MPI tasks x 1 OpenMP threads

MPI task timing breakdown:
Section |  min time  |  avg time  |  max time  |%varavg| %total
---------------------------------------------------------------
Pair    | 1.1834     | 2.2439     | 3.6968     |  40.0 | 16.90
Bond    | 0.00018837 | 0.00053834 | 0.00083373 |   0.0 |  0.00
Kspace  | 3.1405     | 4.597      | 5.6454     |  28.0 | 34.63
Neigh   | 0.80679    | 0.81193    | 0.81892    |   0.3 |  6.12
Comm    | 0.30115    | 0.37552    | 0.43872    |   5.9 |  2.83
Output  | 0.001092   | 0.0011162  | 0.0014688  |   0.2 |  0.01
Modify  | 5.1784     | 5.2272     | 5.2746     |   1.0 | 39.37
Other   |            | 0.01884    |            |       |  0.14

Nlocal:        313.367 ave         372 max         273 min
Histogram: 3 5 6 4 0 1 6 3 0 2
Nghost:         7712.2 ave        9450 max        6023 min
Histogram: 12 0 0 0 0 0 0 12 0 6
Neighs:         214295 ave      272372 max      116356 min
Histogram: 5 1 0 0 0 1 5 11 4 3

Total # of neighbors = 6428844
Ave neighs/atom = 683.84682
Ave special neighs/atom = 1.6919477
Neighbor list builds = 41
Dangerous builds = 4

    write_dump solvent xyz water_ions.xyz
    write_data equilibrated_structure.data
System init for write_data ...
PPPM/electrode initialization ...
  using 12-bit tables for long-range coulomb (src/kspace.cpp:342)
  G vector (1/distance) = 0.23783322
  grid = 40 45 100
  stencil order = 5
  estimated absolute RMS force accuracy = 0.00036352325
  estimated relative force accuracy = 1.0947395e-06
  using double precision FFTW3
  3d grid and FFT values/proc = 45144 22200
Generated 15 of 15 mixed pair_coeff terms from arithmetic mixing rule
WARNING: Neighbor exclusions used with KSpace solver may give inconsistent Coulombic energies (src/neighbor.cpp:654)

    ## ======== production run ========


    reset_timestep 0
    # Dump to also show the changing charge of the walls
    dump alldump all custom 50 wallcharge_${l_tf}.lammpstrj id type x y z q
    dump alldump all custom 50 wallcharge_0.5.lammpstrj id type x y z q
    thermo 500 # frequency log file
    #
    variable doutx equal 50 # 0.1ps
    #
    #dump xtc all xtc ${doutx} traj.xtc
    run 20000
PPPM/electrode initialization ...
  using 12-bit tables for long-range coulomb (src/kspace.cpp:342)
  G vector (1/distance) = 0.23783322
  grid = 40 45 100
  stencil order = 5
  estimated absolute RMS force accuracy = 0.00036352325
  estimated relative force accuracy = 1.0947395e-06
  using double precision FFTW3
  3d grid and FFT values/proc = 45144 22200
Generated 15 of 15 mixed pair_coeff terms from arithmetic mixing rule
WARNING: Neighbor exclusions used with KSpace solver may give inconsistent Coulombic energies (src/neighbor.cpp:654)
Per MPI rank memory allocation (min/avg/max) = 27.35 | 27.86 | 29.57 Mbytes
   Step         PotEng         KinEng         E_coul         E_long         E_vdwl      c_watertemp  
         0  -30606.504      4275.4116      91620.704     -127458.24      5231.0335      270.16613    
       500  -29644.318      4852.446       92970.971     -127447.13      4831.8419      306.62932    
      1000  -29675.474      4778.8245      92865.625     -127455.83      4914.7356      301.97713    
      1500  -29882.241      4633.4887      92664.02      -127456.83      4910.5725      292.79326    
      2000  -29768.363      4706.4127      92825.864     -127447.45      4853.227       297.40138    
      2500  -29730.435      4867.5713      92962.12      -127462.16      4769.6082      307.5851     
      3000  -29879.754      4722.2871      92734.539     -127450.22      4835.9253      298.40449    
      3500  -29860.534      4735.3866      92736.543     -127457.74      4860.6666      299.23226    
      4000  -29843.63       4734.7748      92734.59      -127454.7       4876.4846      299.1936     
      4500  -29802.257      4773.6927      92721.301     -127451.93      4928.3752      301.65285    
      5000  -29854.31       4723.0736      92659.213     -127454.44      4940.9144      298.4542     
      5500  -29786.977      4804.2913      92690.3       -127453.21      4975.9371      303.58639    
      6000  -29771.346      4837.8974      92835.183     -127455.07      4848.5391      305.70998    
      6500  -29887.512      4741.0006      92651.121     -127456.18      4917.5495      299.58702    
      7000  -29730.979      4750.2726      92947.197     -127450.23      4772.0496      300.17291    
      7500  -29817.646      4753.2776      92757.31      -127455.3       4880.3417      300.3628     
      8000  -29953.088      4827.5741      92615.094     -127455.41      4887.2297      305.05765    
      8500  -29759.904      4761.1647      92834.524     -127452.47      4858.0378      300.8612     
      9000  -29942.128      4780.5345      92541.322     -127461         4977.5511      302.08518    
      9500  -29847.576      4789.6923      92578.314     -127448.35      5022.4635      302.66387    
     10000  -29818.802      4733.0846      92775.387     -127448.92      4854.7273      299.08679    
     10500  -29797.585      4753.881       92681.432     -127461.09      4982.0722      300.40094    
     11000  -29971.676      4722.7973      92535.711     -127461.07      4953.6873      298.43673    
     11500  -29914.208      4701.5313      92680.356     -127451.56      4856.9943      297.09292    
     12000  -29726.512      4754.6214      92785.59      -127451.75      4939.6486      300.44772    
     12500  -29806.708      4739.5017      92884.751     -127459.75      4768.2919      299.4923     
     13000  -29859.687      4695.0604      92633.605     -127451.1       4957.8057      296.68402    
     13500  -29801.28       4668.4076      92835.653     -127456.42      4819.4829      294.99981    
     14000  -29743.423      4756.7285      92801.988     -127458.58      4913.1667      300.58087    
     14500  -29740.994      4686.1684      92835.911     -127455.16      4878.2591      296.12213    
     15000  -29772.194      4663.8445      92698.383     -127444.87      4974.2963      294.71147    
     15500  -29889.288      4755.259       92723.462     -127453.93      4841.1772      300.48801    
     16000  -29828.14       4834.5844      92820.657     -127458.2       4809.4036      305.50063    
     16500  -29794.493      4772.5916      92797.854     -127455.93      4863.5878      301.58327    
     17000  -29705.419      4701.852       92945.03      -127454.75      4804.2979      297.11318    
     17500  -29933.803      4805.9427      92533.647     -127460.51      4993.0582      303.69075    
     18000  -29866.953      4667.4956      92695.056     -127460.4       4898.3884      294.94218    
     18500  -30077.443      4698.1976      92550.308     -127456.18      4828.4249      296.88227    
     19000  -29841.31       4823.4521      92602.474     -127455.94      5012.1528      304.79718    
     19500  -29852.22       4806.2738      92692.975     -127462.25      4917.0506      303.71167    
     20000  -29953.527      4697.3038      92576.816     -127449.14      4918.7995      296.82578    
Loop time of 507.814 on 30 procs for 20000 steps with 9401 atoms

Performance: 6.806 ns/day, 3.526 hours/ns, 39.385 timesteps/s, 370.254 katom-step/s
94.3% CPU use with 30 MPI tasks x 1 OpenMP threads

MPI task timing breakdown:
Section |  min time  |  avg time  |  max time  |%varavg| %total
---------------------------------------------------------------
Pair    | 46.04      | 86.625     | 141.33     | 260.6 | 17.06
Bond    | 0.01185    | 0.019575   | 0.028      |   3.1 |  0.00
Kspace  | 110.05     | 164.98     | 205.87     | 189.1 | 32.49
Neigh   | 38.22      | 38.415     | 38.704     |   2.0 |  7.56
Comm    | 12.211     | 14.378     | 16.396     |  25.3 |  2.83
Output  | 0.50545    | 0.67563    | 0.84183    |  12.3 |  0.13
Modify  | 200.75     | 201.99     | 203.12     |   4.1 | 39.78
Other   |            | 0.7308     |            |       |  0.14

Nlocal:        313.367 ave         359 max         271 min
Histogram: 4 3 6 2 3 0 0 4 6 2
Nghost:        7679.33 ave        9342 max        6054 min
Histogram: 12 0 0 0 0 0 0 12 0 6
Neighs:         213146 ave      250600 max      126391 min
Histogram: 5 1 0 0 0 0 1 5 8 10

Total # of neighbors = 6394381
Ave neighs/atom = 680.18094
Ave special neighs/atom = 1.6919477
Neighbor list builds = 1925
Dangerous builds = 1292
    unfix conp1
    fix conp2 lower electrode/conp 0.5 2.925 couple upper -0.5
1440 atoms in group conp_group
    fix_modify conp2 tf 1 ${l_tf} ${d}
    fix_modify conp2 tf 1 0.5 ${d}
    fix_modify conp2 tf 1 0.5 6.81038626666667
    fix_modify conp2 tf 6 ${l_tf} ${d}
    fix_modify conp2 tf 6 0.5 ${d}
    fix_modify conp2 tf 6 0.5 6.81038626666667
    run         200000 # 400 ps
PPPM/electrode initialization ...
  using 12-bit tables for long-range coulomb (src/kspace.cpp:342)
  G vector (1/distance) = 0.23783322
  grid = 40 45 100
  stencil order = 5
  estimated absolute RMS force accuracy = 0.00036352309
  estimated relative force accuracy = 1.094739e-06
  using double precision FFTW3
  3d grid and FFT values/proc = 45144 22200
Generated 15 of 15 mixed pair_coeff terms from arithmetic mixing rule
WARNING: Neighbor exclusions used with KSpace solver may give inconsistent Coulombic energies (src/neighbor.cpp:654)
Neighbor list info ...
  update: every = 1 steps, delay = 10 steps, check = yes
  max neighbors/atom: 2000, page size: 100000
  master list distance cutoff = 16
  ghost atom cutoff = 16
  binsize = 8, bins = 6 6 7
  2 neighbor lists, perpetual/occasional/extra = 2 0 0
  (1) pair lj/cut/coul/long, perpetual
      attributes: half, newton on
      pair build: half/bin/newton
      stencil: half/bin/3d
      bin: standard
  (2) fix electrode/conp, perpetual, copy from (1)
      attributes: half, newton on
      pair build: copy
      stencil: none
      bin: none
Per MPI rank memory allocation (min/avg/max) = 28.61 | 29.13 | 30.84 Mbytes
   Step         PotEng         KinEng         E_coul         E_long         E_vdwl      c_watertemp  
     20000  -29951.058      4697.3038      92576.88      -127446.74      4918.7995      296.82578    
     20500  -29831.155      4676.9826      92798.68      -127455.76      4825.929       295.54167    
     21000  -29762.414      4662.6713      92818.589     -127453.08      4872.0797      294.63733    
     21500  -29767.664      4753.6232      92751.596     -127450.41      4931.1496      300.38464    
     22000  -29803.525      4767.9287      92864.612     -127445.99      4777.8482      301.28862    
     22500  -29846.323      4833.5765      92572.744     -127446.48      5027.414       305.43694    
     23000  -29916.407      4738.2639      92475.374     -127444         5052.2212      299.41408    
     23500  -29859.123      4808.3752      92685.08      -127437.3       4893.0948      303.84446    
     24000  -29775.279      4739.9543      92855.509     -127444.48      4813.6929      299.5209     
     24500  -29892.861      4723.8268      92503.597     -127450.56      5054.1046      298.50179    
     25000  -29882.632      4802.2188      92532.34      -127448.82      5033.8429      303.45543    
     25500  -29737.922      4736.7834      92783.266     -127436.69      4915.4977      299.32052    
     26000  -29785.246      4750.9785      92742.552     -127435.3       4907.5011      300.21752    
     26500  -29735.073      4718.4089      92883.206     -127441.82      4823.5416      298.15943    
     27000  -29882.872      4759.7133      92641.627     -127439.72      4915.2193      300.76948    
     27500  -29877.189      4709.2081      92703.823     -127443.13      4862.1223      297.57803    
     28000  -29863.075      4758.9888      92624.291     -127443.71      4956.3486      300.7237     
     28500  -29774.037      4783.7648      92782.591     -127438.54      4881.9173      302.28931    
     29000  -29809.386      4707.2731      92727.942     -127438.7       4901.3756      297.45575    
     29500  -29865.15       4762.0356      92703.647     -127436.34      4867.5413      300.91623    
     30000  -29822.238      4802.4194      92681.861     -127442.99      4938.8892      303.46811    
     30500  -29939.119      4821.0703      92698.97      -127438         4799.9131      304.64667    
     31000  -29882.691      4642.2913      92449.177     -127438.13      5106.2603      293.3495     
     31500  -29811.068      4813.1891      92760.984     -127437.37      4865.3215      304.14865    
     32000  -29846.553      4719.9151      92866.853     -127444.04      4730.6301      298.25461    
     32500  -29766.458      4674.6383      92740.127     -127441.33      4934.7426      295.39353    
     33000  -29882.911      4798.2623      92568.732     -127436.93      4985.2901      303.20542    
     33500  -29778.292      4747.9491      92779.862     -127440.15      4881.994       300.0261     
     34000  -29852.217      4703.3044      92723.237     -127450.69      4875.2386      297.20497    
     34500  -29857.117      4698.6505      92608.259     -127437.59      4972.209       296.91088    
     35000  -29808.529      4738.6498      92720.617     -127445.02      4915.8712      299.43846    
     35500  -29900.429      4860.8407      92622.81      -127442.66      4919.4174      307.15979    
     36000  -29823.035      4742.0108      92660.07      -127440.26      4957.1565      299.65085    
     36500  -29841.752      4642.3227      92676.49      -127433.15      4914.9037      293.35149    
     37000  -29770.087      4711.7246      92640.601     -127445.9       5035.2124      297.73704    
     37500  -29803.37       4703.6222      92743.071     -127442.19      4895.7508      297.22505    
     38000  -29807.925      4713.2149      92629.952     -127441.26      5003.3847      297.83121    
     38500  -29995.338      4687.7901      92497.59      -127439.54      4946.6089      296.22461    
     39000  -29686.303      4823.6842      92971.617     -127426.25      4768.3345      304.81185    
     39500  -29830.809      4788.2221      92585.135     -127448.56      5032.6132      302.57097    
     40000  -29824.668      4769.2287      92681.278     -127432.54      4926.5914      301.37077    
     40500  -29826.394      4726.5454      92722.32      -127436.67      4887.958       298.67358    
     41000  -29866.11       4781.1046      92732.234     -127446.93      4848.589       302.12121    
     41500  -29808.387      4670.3785      92672.206     -127442.85      4962.26        295.12435    
     42000  -29943.09       4787.2979      92642.081     -127435.86      4850.6923      302.51257    
     42500  -29750.825      4804.0907      92810.404     -127430.22      4868.9943      303.57372    
     43000  -29739.551      4715.6145      92900.44      -127439.09      4799.0985      297.98285    
     43500  -29844.399      4667.6395      92682.914     -127440.82      4913.5094      294.95128    
     44000  -29674.635      4723.7987      92925.092     -127445.02      4845.2906      298.50001    
     44500  -29811.941      4805.3426      92724.059     -127440.73      4904.7283      303.65283    
     45000  -29883.462      4725.6002      92640.142     -127444.08      4920.4729      298.61385    
     45500  -29751.452      4691.7451      92826.285     -127447.26      4869.5269      296.47453    
     46000  -29772.961      4769.8202      92701.475     -127439.61      4965.1726      301.40814    
     46500  -29617.75       4803.2135      93016.131     -127437.28      4803.3962      303.51829    
     47000  -29743.787      4832.2195      92963.418     -127440.12      4732.9167      305.3512     
     47500  -29759.791      4776.187       92964.677     -127436.25      4711.7813      301.81047    
     48000  -29998.489      4790.2698      92481.843     -127436.21      4955.879       302.70037    
     48500  -29927.098      4776.6418      92613.104     -127441.73      4901.5256      301.83921    
     49000  -29782.357      4837.0332      92840.123     -127449.76      4827.2852      305.65538    
     49500  -29705.189      4815.8249      93014.995     -127442.84      4722.653       304.31521    
     50000  -29774.037      4740.3792      92903.602     -127441.49      4763.8493      299.54775    
     50500  -29870.668      4734.7707      92712.189     -127444.23      4861.3754      299.19334    
     51000  -29926.616      4808.5423      92486.002     -127441.07      5028.454       303.85502    
     51500  -29778.927      4781.4671      92887.332     -127434.53      4768.2696      302.14412    
     52000  -29774.679      4791.273       92715.844     -127450.56      4960.0348      302.76376    
     52500  -29833.046      4703.4302      92677.965     -127441.59      4930.5814      297.21291    
     53000  -29771.895      4666.3369      92868.024     -127444.36      4804.4412      294.86897    
     53500  -29939.609      4635.6621      92622.466     -127445.76      4883.6799      292.9306     
     54000  -29902.323      4695.7019      92574.158     -127439.87      4963.3864      296.72456    
     54500  -29969.32       4692.7226      92542.19      -127437.04      4925.5315      296.53629    
     55000  -29812.983      4739.5947      92720.96      -127441.49      4907.5437      299.49817    
     55500  -29946.719      4762.5492      92562.057     -127441.54      4932.7623      300.94868    
     56000  -29842.615      4684.6815      92726.336     -127443.43      4874.4791      296.02817    
     56500  -29833.164      4785.0143      92670.738     -127443.68      4939.7737      302.36827    
     57000  -29739.265      4758.6493      92735.74      -127441.64      4966.6352      300.70224    
     57500  -29746.497      4773.5049      92668.532     -127441.3       5026.2741      301.64098    
     58000  -29846.326      4807.6158      92547.804     -127446         5051.8719      303.79647    
     58500  -29522.091      4681.1817      93036.198     -127443.92      4885.6328      295.80702    
     59000  -29755.324      4768.337       92893.421     -127441.85      4793.1014      301.31442    
     59500  -29786.768      4711.3419      92773.493     -127450.83      4890.5641      297.71286    
     60000  -29864.405      4763.6936      92774.065     -127454.24      4815.7663      301.021      
     60500  -29708.93       4746.3584      92779.605     -127445.88      4957.3449      299.92558    
     61000  -29854.534      4752.9661      92768.756     -127444.12      4820.8271      300.34312    
     61500  -29747.507      4702.3354      92905.821     -127449.8       4796.4693      297.14373    
     62000  -29877.152      4771.2984      92706.948     -127437.04      4852.9361      301.50155    
     62500  -29825.636      4760.2072      92750.369     -127446.12      4870.1155      300.80069    
     63000  -29744.42       4823.6931      92807.612     -127437.83      4885.797       304.81241    
     63500  -29881.31       4684.9068      92517.56      -127436.61      5037.7358      296.04241    
     64000  -29864.398      4741.4093      92720.101     -127444.76      4860.2563      299.61284    
     64500  -29753.932      4746.3258      92814.484     -127437.93      4869.5107      299.92352    
     65000  -29844.492      4717.9438      92614.716     -127441.12      4981.9065      298.13004    
     65500  -29848.167      4763.3904      92684.562     -127431.76      4899.0326      301.00184    
     66000  -29753.685      4907.1594      92782.712     -127437.76      4901.3584      310.0867     
     66500  -29836.903      4771.99        92682.627     -127436.96      4917.4306      301.54526    
     67000  -29749.429      4740.1006      92900.311     -127440.36      4790.6162      299.53014    
     67500  -29636.483      4768.9257      92952.611     -127439.23      4850.1399      301.35162    
     68000  -29889.757      4758.6037      92633.046     -127432.53      4909.7254      300.69936    
     68500  -29816.389      4740.6768      92719.725     -127438.05      4901.9336      299.56656    
     69000  -29848.926      4814.0351      92523.168     -127439.64      5067.5457      304.20211    
     69500  -29720.763      4798.3773      92817.739     -127439.15      4900.6438      303.21269    
     70000  -29829.904      4814.7474      92894.551     -127443.38      4718.9284      304.24712    
     70500  -29891.83       4752.218       92497.014     -127435.56      5046.7205      300.29585    
     71000  -29552.014      4780.8053      93086.592     -127439.87      4801.2655      302.1023     
     71500  -29794.013      4724.2888      92579.251     -127435.97      5062.7031      298.53099    
     72000  -29749.838      4860.5228      92997.923     -127435.13      4687.3684      307.1397     
     72500  -29666.272      4782.6508      92794.622     -127432.09      4971.1927      302.21892    
     73000  -29730.345      4685.0186      92834.864     -127443.56      4878.3558      296.04947    
     73500  -29846.536      4729.8312      92741.005     -127440.98      4853.438       298.88121    
     74000  -29924.585      4769.5231      92694.152     -127444.32      4825.5781      301.38937    
     74500  -29857.427      4659.3363      92622.204     -127437.11      4957.4748      294.42659    
     75000  -29656.59       4694.2021      93004.402     -127436.85      4775.8563      296.62978    
     75500  -29704.157      4758.8712      92878.963     -127444.87      4861.7536      300.71627    
     76000  -29721.026      4753.9249      92931.208     -127449.91      4797.6747      300.40371    
     76500  -29851.641      4722.6858      92693.455     -127439.04      4893.9466      298.42969    
     77000  -29829.843      4693.2913      92769.912     -127439.1       4839.3435      296.57223    
     77500  -29789.314      4792.3418      92771.879     -127444.92      4883.7272      302.8313     
     78000  -29966.917      4786.9815      92616.075     -127445.28      4862.2895      302.49258    
     78500  -29789.473      4762.2523      92741.094     -127437.14      4906.5757      300.92992    
     79000  -29816.202      4646.8191      92790.256     -127433.11      4826.6558      293.63562    
     79500  -29734.894      4835.3074      92740.368     -127438         4962.7394      305.54632    
     80000  -29697.78       4746.7529      92787.414     -127441.87      4956.6755      299.95051    
     80500  -29687.283      4760.5957      92864.308     -127434.19      4882.599       300.82524    
     81000  -29697.714      4664.0217      92846.307     -127441.95      4897.9285      294.72266    
     81500  -29697.918      4661.6961      92969.076     -127435.79      4768.7915      294.57571    
     82000  -29662.283      4852.178       92923.176     -127436.8       4851.3375      306.61239    
     82500  -29689.489      4716.4077      92972.859     -127444.96      4782.6142      298.03297    
     83000  -29734.212      4732.0921      92841.36      -127442.49      4866.9157      299.02408    
     83500  -29667.134      4684.6434      92922.931     -127438.21      4848.1467      296.02576    
     84000  -29679.507      4758.0588      92917.47      -127444.89      4847.9173      300.66493    
     84500  -29663.576      4733.204       92926.36      -127436.42      4846.4828      299.09434    
     85000  -29750.666      4666.899       92834.399     -127441.01      4855.9429      294.90448    
     85500  -29868.47       4765.0462      92650.566     -127444.74      4925.7         301.10647    
     86000  -29686.075      4750.4517      92876.22      -127434.73      4872.4305      300.18423    
     86500  -29646.939      4808.7097      92988.284     -127431.52      4796.2948      303.8656     
     87000  -29712.236      4740.6202      92776.496     -127439.21      4950.4809      299.56297    
     87500  -29889.5        4645.283       92736.761     -127444.68      4818.4201      293.53856    
     88000  -29739.726      4755.6945      92855.706     -127437.55      4842.1204      300.51553    
     88500  -29642.291      4734.1706      93058.693     -127441.89      4740.9069      299.15542    
     89000  -29775.986      4630.3507      92753.437     -127440.23      4910.8059      292.59497    
     89500  -29756.525      4728.9079      92725.222     -127436.58      4954.8348      298.82287    
     90000  -29841.149      4839.7927      92672.256     -127442.78      4929.3701      305.82975    
     90500  -29732.136      4740.3896      92810.468     -127443.23      4900.6209      299.5484     
     91000  -29734.943      4695.4614      92859.387     -127444.99      4850.6639      296.70936    
     91500  -29649.963      4658.4688      92957.432     -127439.19      4831.7908      294.37177    
     92000  -29705.646      4706.2849      92887.712     -127439.1       4845.7407      297.3933     
     92500  -29726.263      4744.7417      92851.716     -127443.69      4865.713       299.82342    
     93000  -29678.455      4761.494       92882.245     -127442.85      4882.1477      300.88201    
     93500  -29639.556      4808.437       92979.962     -127441.03      4821.5143      303.84836    
     94000  -29846.635      4846.7676      92667.752     -127433.88      4919.4978      306.2705     
     94500  -29858.033      4762.2163      92755.769     -127438.32      4824.5188      300.92764    
     95000  -29779.683      4645.7153      92711.242     -127443.96      4953.033       293.56587    
     95500  -29755.621      4675.4339      92750.089     -127442.08      4936.3648      295.44381    
     96000  -29851.198      4764.706       92682.389     -127435.95      4902.361       301.08497    
     96500  -29782.323      4668.3544      92699.938     -127435.79      4953.5281      294.99645    
     97000  -29872.523      4691.2898      92593.599     -127445.19      4979.0675      296.44575    
     97500  -29851.752      4723.8478      92812.98      -127443.75      4779.0201      298.50312    
     98000  -29777.307      4745.8592      92749.595     -127436.34      4909.4353      299.89403    
     98500  -29939.454      4656.0407      92565.07      -127445.68      4941.16        294.21834    
     99000  -29766.457      4792.3155      92599.418     -127442.04      5076.1649      302.82963    
     99500  -29838.078      4755.1606      92703.871     -127437.91      4895.9626      300.48179    
    100000  -29761.398      4718.8794      92684.979     -127438.43      4992.0516      298.18916    
    100500  -29907.338      4708.8494      92506.631     -127428.62      5014.6536      297.55536    
    101000  -29818.431      4736.8444      92790.747     -127448.02      4838.845       299.32438    
    101500  -29755.114      4693.1408      92733.119     -127439.39      4951.1549      296.56272    
    102000  -29649.215      4724.4103      93011.348     -127438.69      4778.1289      298.53866    
    102500  -29823.145      4771.7111      92780.981     -127441.69      4837.5682      301.52763    
    103000  -29891.234      4769.2222      92486.291     -127445.81      5068.2828      301.37036    
    103500  -29937.925      4726.395       92539.554     -127437.82      4960.339       298.66408    
    104000  -29831.379      4699.7486      92612.605     -127442.06      4998.0784      296.98027    
    104500  -29775.313      4688.259       92699.499     -127443.41      4968.5996      296.25424    
    105000  -29708.163      4734.1988      92907.896     -127445.99      4829.9256      299.15721    
    105500  -29887.723      4729.7483      92666.077     -127436.15      4882.3454      298.87597    
    106000  -29806.351      4726.5999      92759.017     -127438.12      4872.7499      298.67703    
    106500  -29634.151      4675.686       92935.657     -127437.94      4868.1336      295.45974    
    107000  -29664.799      4723.414       92844.289     -127443.31      4934.2229      298.4757     
    107500  -29787.46       4769.4386      92825.47      -127441.35      4828.4236      301.38403    
    108000  -29710.445      4895.1262      92927.983     -127443.13      4804.7016      309.32631    
    108500  -29829.442      4739.4012      92783.895     -127443.67      4830.3327      299.48595    
    109000  -29831.424      4738.8827      92590.982     -127432.48      5010.0696      299.45318    
    109500  -29726.419      4722.2815      93003.033     -127444.47      4715.0179      298.40414    
    110000  -29795.875      4770.7694      92892.682     -127440.4       4751.8474      301.46813    
    110500  -29766.206      4789.0855      92652.517     -127446.91      5028.1871      302.62553    
    111000  -29917.414      4781.2753      92518.438     -127446.78      5010.9324      302.132      
    111500  -29812.888      4709.4222      92736.879     -127447.11      4897.3397      297.59155    
    112000  -29974.547      4677.3949      92428.58      -127436.14      5033.0091      295.56773    
    112500  -29869.27       4794.7627      92567.452     -127443.26      5006.5411      302.98428    
    113000  -29810.627      4740.8238      92743.44      -127446.47      4892.4074      299.57584    
    113500  -29674.84       4802.3823      92752.32      -127438.38      5011.2152      303.46576    
    114000  -29707.817      4744.6857      92893.53      -127441.47      4840.1217      299.81988    
    114500  -29856.723      4742.1312      92838.554     -127450.86      4755.5835      299.65846    
    115000  -29808.738      4639.9838      92889.946     -127437.02      4738.3332      293.2037     
    115500  -29971.603      4817.79        92495.546     -127439.44      4972.2864      304.43938    
    116000  -29670.587      4769.3891      92861.213     -127441.02      4909.223       301.3809     
    116500  -29883.413      4777.0195      92556.199     -127441.16      5001.5454      301.86307    
    117000  -29765.842      4698.2207      92746.682     -127438.62      4926.0996      296.88372    
    117500  -29831.33       4670.7313      92872.274     -127448.85      4745.2482      295.14665    
    118000  -29906.567      4711.9744      92673.858     -127443.65      4863.2229      297.75283    
    118500  -29808.544      4658.2508      92820.062     -127437.89      4809.2797      294.358      
    119000  -29819.384      4769.5291      92652.913     -127433.73      4961.4351      301.38975    
    119500  -29900.454      4772.3019      92720.583     -127435.99      4814.9577      301.56496    
    120000  -29947.155      4731.9452      92584.592     -127433.45      4901.6991      299.01479    
    120500  -29696.133      4804.3915      92958.689     -127442.18      4787.3627      303.59272    
    121000  -29793.644      4737.6106      92679.973     -127438.89      4965.273       299.3728     
    121500  -29764.101      4769.2889      92667.568     -127442.55      5010.8854      301.37457    
    122000  -29806.787      4729.9199      92868.363     -127445.42      4770.266       298.88682    
    122500  -29766.271      4756.4387      92769.647     -127437.82      4901.9018      300.56256    
    123000  -29864.241      4755.7066      92726.749     -127434.86      4843.8692      300.5163     
    123500  -29795.167      4713.9601      92855.604     -127439.02      4788.2444      297.8783     
    124000  -29686.683      4652.7127      92682.466     -127439.83      5070.6801      294.00804    
    124500  -29775.556      4735.1248      92752.005     -127445.66      4918.0969      299.21572    
    125000  -29875.015      4710.494       92457.443     -127449.81      5117.3504      297.65928    
    125500  -29922.27       4769.9986      92375.077     -127435.64      5138.2913      301.41941    
    126000  -29731.003      4713.2191      92757.596     -127434.91      4946.315       297.83148    
    126500  -29974.71       4709.0453      92671.882     -127438.22      4791.6315      297.56774    
    127000  -29931.01       4686.5048      92681.649     -127444.04      4831.3842      296.14339    
    127500  -29805.963      4755.8315      92817.168     -127439.2       4816.0644      300.52419    
    128000  -29841.711      4773.1206      92707.144     -127439.41      4890.558       301.6167     
    128500  -29727.979      4728.0883      92763.99      -127436.64      4944.6755      298.77107    
    129000  -29843.703      4792.8575      92777.647     -127442.94      4821.5909      302.86389    
    129500  -29567.693      4693.241       92994.535     -127428.74      4866.5091      296.56905    
    130000  -29603.581      4837.5601      93140.168     -127428.54      4684.7907      305.68867    
    130500  -29706.132      4736.9406      93072.735     -127436.82      4657.957       299.33046    
    131000  -29845.301      4760.192       92635.025     -127443.66      4963.3306      300.79973    
    131500  -29792.085      4804.6499      92660.172     -127434.53      4982.2741      303.60906    
    132000  -29892.013      4821.9165      92673.676     -127437.68      4871.9882      304.70014    
    132500  -29808.383      4709.8761      92644.992     -127437.47      4984.0965      297.62024    
    133000  -29791.101      4702.6265      92609.229     -127441.54      5041.2106      297.16213    
    133500  -29787.948      4629.8872      92859.657     -127447.71      4800.1056      292.56568    
    134000  -29657.679      4827.6347      92939.253     -127435.08      4838.1489      305.06148    
    134500  -29824.876      4713.5151      92702.082     -127431.19      4904.2279      297.85019    
    135000  -29766.227      4828.4016      92927.578     -127444.84      4751.0352      305.10994    
    135500  -29711.541      4771.8405      92940.248     -127446.99      4795.205       301.53581    
    136000  -29769.242      4765.3434      92702.78      -127440.49      4968.4695      301.12525    
    136500  -29859.94       4754.1008      92572.209     -127443.83      5011.6839      300.41482    
    137000  -29812.129      4645.0705      92837.613     -127443.95      4794.2082      293.52513    
    137500  -29777.328      4749.061       92664.847     -127435.69      4993.5115      300.09636    
    138000  -29823.673      4747.0555      92720.197     -127445.67      4901.8001      299.96963    
    138500  -29737.567      4717.8387      92787.215     -127440.13      4915.3438      298.1234     
    139000  -29711.814      4659.089       92823.805     -127448.05      4912.431       294.41097    
    139500  -29728.259      4726.2276      92901.026     -127439.34      4810.0579      298.65349    
    140000  -29722.849      4774.8868      93025.907     -127439.39      4690.6303      301.72831    
    140500  -29898.511      4673.1398      92586.381     -127442.37      4957.4784      295.29884    
    141000  -29875.873      4745.5507      92448.604     -127439.07      5114.5931      299.87454    
    141500  -29841.335      4726.3599      92546.383     -127436.58      5048.862       298.66186    
    142000  -29679.277      4805.6005      92758.172     -127444.84      5007.3879      303.66913    
    142500  -29772.499      4709.6059      92907.222     -127435.88      4756.155       297.60316    
    143000  -29858.526      4782.9347      92611.457     -127430.55      4960.5675      302.23686    
    143500  -29975.526      4709.391       92394.622     -127433.42      5063.2691      297.58958    
    144000  -29766.297      4700.3367      92732.109     -127440.38      4941.9768      297.01743    
    144500  -29822.496      4677.2971      92703.814     -127434.44      4908.1267      295.56154    
    145000  -29739.02       4784.8997      92676.184     -127439.45      5024.2435      302.36102    
    145500  -29737.986      4772.1621      92870.027     -127440.57      4832.5534      301.55613    
    146000  -29669.841      4825.6         92989.616     -127436.53      4777.0679      304.9329     
    146500  -29731.229      4720.7829      92882.093     -127439.89      4826.5645      298.30945    
    147000  -29821.224      4743.8441      92625.55      -127446.27      4999.4982      299.7667     
    147500  -29863.689      4739.5206      92726.322     -127442.12      4852.1105      299.49349    
    148000  -29780.511      4722.446       92818.491     -127438.95      4839.9495      298.41453    
    148500  -29789.576      4721.2135      92782.027     -127439.71      4868.1022      298.33665    
    149000  -29786.998      4781.4656      92758.821     -127440.89      4895.0693      302.14402    
    149500  -29736.09       4702.1814      92757.607     -127435.8       4942.1008      297.134      
    150000  -29672.722      4735.2171      92981.636     -127436.17      4781.8133      299.22155    
    150500  -29787.482      4707.3573      92692.745     -127438.16      4957.9354      297.46107    
    151000  -29832.316      4824.767       92757.825     -127439.74      4849.6015      304.88027    
    151500  -29690.458      4785.0392      92966.616     -127432.27      4775.2004      302.36984    
    152000  -29691.037      4778.8107      92988.229     -127444.15      4764.8888      301.97626    
    152500  -29579.168      4765.5997      93195.889     -127443.03      4667.9701      301.14145    
    153000  -29713.073      4694.0999      93014.199     -127438.31      4711.0358      296.62332    
    153500  -29733.325      4765.3829      92851.321     -127440.95      4856.3026      301.12775    
    154000  -29807.189      4645.9623      92836.697     -127445.09      4801.2056      293.58148    
    154500  -29859.596      4678.8987      92893.927     -127441.84      4688.3162      295.66275    
    155000  -29751.225      4737.4876      92900.518     -127441.23      4789.4864      299.36502    
    155500  -29853.57       4792.9691      92499.367     -127447.33      5094.3894      302.87094    
    156000  -29911.769      4778.5061      92680.676     -127435.73      4843.2818      301.95701    
    156500  -29831.098      4674.7402      92542.845     -127441.1       5067.1529      295.39997    
    157000  -29732.476      4707.3177      92877.755     -127436.94      4826.7069      297.45857    
    157500  -29803.03       4757.2886      92845.301     -127444.49      4796.1624      300.61626    
    158000  -29859.023      4807.0291      92596.397     -127442.86      4987.4363      303.7594     
    158500  -29836.338      4770.0844      92646.19      -127443.86      4961.3286      301.42484    
    159000  -29812.576      4684.7951      92690.88      -127439.61      4936.1503      296.03535    
    159500  -29663.163      4730.9407      92876.788     -127438.94      4898.9888      298.95132    
    160000  -29775.934      4759.4204      92748.743     -127442.05      4917.371       300.75097    
    160500  -29927.264      4802.7728      92566.724     -127446.84      4952.8508      303.49044    
    161000  -29772.448      4743.609       92827.682     -127444.12      4843.9941      299.75184    
    161500  -29782.208      4791.262       92756.028     -127444.26      4906.0248      302.76307    
    162000  -29734.096      4799.224       92853.423     -127436.48      4848.9649      303.26619    
    162500  -29774.625      4906.5194      92693.427     -127428.21      4960.1581      310.04626    
    163000  -29840.64       4746.6894      92757.056     -127448.18      4850.4827      299.94649    
    163500  -29804.42       4743.7579      92647.336     -127441.9       4990.1425      299.76125    
    164000  -29904.072      4779.2294      92676.961     -127446.15      4865.1207      302.00272    
    164500  -29746.408      4757.0965      92773.233     -127445.96      4926.3201      300.60412    
    165000  -29835.877      4778.7229      92720.806     -127444.22      4887.5395      301.97071    
    165500  -29815.486      4756.3301      92764.969     -127445.9       4865.442       300.55569    
    166000  -29759.624      4816.8211      92782.226     -127441.07      4899.2172      304.37816    
    166500  -29837.196      4716.3525      92717.757     -127442.81      4887.8589      298.02948    
    167000  -29845.336      4670.6824      92549.712     -127433.77      5038.7224      295.14356    
    167500  -29627.322      4810.4177      92922.849     -127440.53      4890.3571      303.97352    
    168000  -29729.045      4674.9077      92875.603     -127437.82      4833.1711      295.41056    
    168500  -29881.553      4768.4604      92692.896     -127437.61      4863.1608      301.32222    
    169000  -29692.24       4728.748       92973.318     -127439.45      4773.8944      298.81277    
    169500  -29836.796      4690.5719      92832.298     -127439.15      4770.0579      296.40039    
    170000  -29722.275      4600.4411      92812.755     -127441.82      4906.7937      290.70497    
    170500  -29679.766      4769.6281      92993.255     -127441.16      4768.1397      301.396      
    171000  -29716.214      4801.1543      92943.612     -127440.67      4780.8472      303.38817    
    171500  -29807.834      4674.8755      92751.786     -127444.11      4884.4923      295.40852    
    172000  -29779.625      4668.702       92656.823     -127439.51      5003.0584      295.01841    
    172500  -29730.97       4642.1903      92789.945     -127434.57      4913.6537      293.34312    
    173000  -29634.552      4812.5359      92708.228     -127432.71      5089.9312      304.10738    
    173500  -29854.872      4703.7131      92652.571     -127431.91      4924.463       297.23079    
    174000  -29769.025      4696.3136      92902.829     -127437.76      4765.9045      296.76321    
    174500  -29741.238      4895.7866      92899.063     -127445.03      4804.7263      309.36804    
    175000  -29795.893      4793.1912      92669.117     -127443.18      4978.1708      302.88497    
    175500  -29815.888      4786.6842      92716.979     -127446.94      4914.0746      302.47379    
    176000  -30026.429      4696.4945      92526.848     -127442.49      4889.21        296.77465    
    176500  -29805.085      4693.6513      92581.01      -127440.05      5053.9562      296.59498    
    177000  -29766.591      4703.286       92770.602     -127438.93      4901.7397      297.2038     
    177500  -29504.115      4749.7073      93225.153     -127434.34      4705.0686      300.13719    
    178000  -29791.26       4730.0986      92831.752     -127444.69      4821.6784      298.89811    
    178500  -29890.49       4718.5423      92701.965     -127433.97      4841.5115      298.16786    
    179000  -29915.029      4634.7037      92588.714     -127441.03      4937.2892      292.87004    
    179500  -29744.47       4679.9338      92817.724     -127440.65      4878.4573      295.72816    
    180000  -29982.842      4678.3202      92522.9       -127439.43      4933.6934      295.62619    
    180500  -29719.679      4741.422       92864.949     -127446.4       4861.7706      299.61364    
    181000  -29702.952      4782.8757      92866.274     -127434.71      4865.4848      302.23313    
    181500  -29727.952      4742.4972      92824.74      -127442.9       4890.2063      299.68158    
    182000  -29760.879      4720.9904      92839.778     -127442.37      4841.7088      298.32256    
    182500  -29798.754      4753.7837      92761.373     -127443.46      4883.3323      300.39478    
    183000  -29586.942      4755.9459      92942.788     -127439.4       4909.6754      300.53141    
    183500  -29705.827      4674.6856      92883.609     -127437.78      4848.3398      295.39652    
    184000  -29720.454      4729.2438      92873.765     -127436.06      4841.8389      298.8441     
    184500  -30016.158      4772.0032      92514.384     -127437.76      4907.2219      301.54609    
    185000  -29864.9        4666.3127      92791.76      -127440.59      4783.9302      294.86743    
    185500  -29887.275      4738.5468      92628.053     -127442.24      4926.913       299.43195    
    186000  -29828.976      4720.8475      92794.806     -127438.8       4815.014       298.31353    
    186500  -29732.662      4718.2563      92901.267     -127438.27      4804.3392      298.14978    
    187000  -29842.076      4741.2196      92751.043     -127440.34      4847.2213      299.60085    
    187500  -29809.311      4700.3428      92817.967     -127443.3       4816.0248      297.01782    
    188000  -29793.062      4860.5527      92762.777     -127440.7       4884.8595      307.14159    
    188500  -29823.777      4759.0415      92571.936     -127438.97      5043.2592      300.72703    
    189000  -29796.514      4682.1339      92546.38      -127437.13      5094.2366      295.86719    
    189500  -29644.147      4727.1257      93005.455     -127440.2       4790.601       298.71025    
    190000  -29811.817      4694.1347      92645.311     -127445.85      4988.7184      296.62553    
    190500  -29789.69       4831.4046      92607.833     -127440.56      5043.042       305.2997     
    191000  -29759.894      4775.3116      92725.799     -127441.47      4955.7802      301.75515    
    191500  -29795.457      4662.9621      92797.524     -127442.34      4849.3601      294.65571    
    192000  -29776.311      4732.5342      92844.227     -127445.2       4824.6666      299.05201    
    192500  -29670.954      4848.2874      92958.077     -127445.71      4816.6794      306.36654    
    193000  -29780.311      4732.0226      92785.835     -127434.89      4868.7454      299.01969    
    193500  -29848.053      4614.5472      92706.606     -127437.29      4882.6338      291.59634    
    194000  -29944.641      4811.7542      92640.792     -127444.57      4859.1328      304.05798    
    194500  -29826.484      4724.8545      92746.55      -127442.95      4869.9153      298.56673    
    195000  -29814.326      4646.1533      92688.944     -127439.8       4936.5293      293.59355    
    195500  -29724.766      4727.5946      92937.128     -127443.47      4781.5778      298.73988    
    196000  -29566.333      4818.0371      92983.121     -127444.31      4894.8518      304.455      
    196500  -29825.612      4736.064       92757.99      -127444.5       4860.8972      299.27506    
    197000  -29759.034      4830.0197      92693.678     -127436.03      4983.3156      305.21219    
    197500  -29733.016      4785.1061      92793.872     -127433.42      4906.5278      302.37407    
    198000  -29793.947      4727.0567      92738.683     -127441.55      4908.9209      298.70589    
    198500  -29988.965      4723.6744      92440.471     -127437.36      5007.922       298.49216    
    199000  -29892.7        4790.3864      92463.918     -127440.31      5083.6924      302.70774    
    199500  -29801.84       4635.6453      92667.046     -127442.14      4973.257       292.92954    
    200000  -29678.846      4847.3859      92982.634     -127437.8       4776.3146      306.30957    
    200500  -29864.905      4779.854       92761.819     -127443.27      4816.5496      302.04218    
    201000  -29680.614      4736.0016      92884.642     -127432.62      4867.3624      299.27112    
    201500  -29844.603      4771.7699      92683.788     -127441.98      4913.5874      301.53135    
    202000  -29824.338      4692.2277      92790.115     -127437.66      4823.2035      296.50502    
    202500  -29809.704      4709.3385      92679.956     -127429.21      4939.5485      297.58626    
    203000  -29698.736      4761.9504      92826.151     -127426.96      4902.0697      300.91085    
    203500  -29684.09       4845.6909      92865.681     -127438.52      4888.7516      306.20246    
    204000  -29834.362      4750.6665      92645.705     -127441.01      4960.9437      300.19781    
    204500  -29735.173      4773.482       92798.556     -127437.27      4903.5392      301.63954    
    205000  -29741.897      4804.7102      92920.385     -127444.04      4781.7607      303.61287    
    205500  -29757.378      4701.8381      92910.358     -127438.55      4770.8117      297.11231    
    206000  -29798.887      4734.218       92826.123     -127436.39      4811.3753      299.15841    
    206500  -29790.51       4614.9416      92605.137     -127430.23      5034.5853      291.62126    
    207000  -29933.51       4691.3104      92537.491     -127440.88      4969.8789      296.44706    
    207500  -29718.777      4795.4085      92818.431     -127436.26      4899.0515      303.02509    
    208000  -29791.897      4720.0042      92860.438     -127443.72      4791.3821      298.26024    
    208500  -29720.712      4685.056       92802.14      -127438.17      4915.3195      296.05184    
    209000  -29755.874      4758.3825      92877.585     -127441.04      4807.5806      300.68539    
    209500  -29794.174      4738.9527      92575.431     -127442.99      5073.3851      299.4576     
    210000  -29667.982      4717.8242      92846.206     -127441.63      4927.4405      298.12248    
    210500  -29816.646      4779.3226      92739.772     -127431.21      4874.7893      302.0086     
    211000  -29851.781      4836.3116      92711.886     -127434.52      4870.8514      305.60978    
    211500  -29818.449      4715.7048      92679.443     -127433.08      4935.1895      297.98855    
    212000  -29751.345      4725.527       92895.048     -127436.29      4789.8985      298.60923    
    212500  -29711.285      4793.4133      92915.357     -127435.94      4809.2958      302.89901    
    213000  -29734.446      4751.0721      92845.945     -127437.12      4856.731       300.22344    
    213500  -29704.985      4709.2063      92830.541     -127434.38      4898.8524      297.57791    
    214000  -29860.061      4736.2622      92537.726     -127438.11      5040.3255      299.28759    
    214500  -29713.497      4731.7771      92766.333     -127438.79      4958.9621      299.00417    
    215000  -29814.59       4760.3633      92685.124     -127444.66      4944.9509      300.81056    
    215500  -29769.417      4798.787       92834.702     -127438.14      4834.0213      303.23858    
    216000  -29783.761      4786.6109      92827.277     -127437.18      4826.1393      302.46916    
    216500  -29879.685      4817.0738      92753.283     -127445.57      4812.6051      304.39413    
    217000  -29815.048      4670.5914      92733.218     -127440.2       4891.9368      295.13781    
    217500  -29654.321      4797.4005      92875.261     -127440.44      4910.8613      303.15096    
    218000  -29776.97       4729.2628      92814.812     -127444.23      4852.4494      298.84529    
    218500  -29817.949      4806.4368      92713.297     -127442.19      4910.9398      303.72197    
    219000  -29675.159      4744.731       92854.86      -127441.71      4911.687       299.82274    
    219500  -29778.188      4778.5261      92821.514     -127439.35      4839.6509      301.95828    
    220000  -29861.363      4761.9762      92472.182     -127438.41      5104.8622      300.91248    
Loop time of 8513.7 on 30 procs for 200000 steps with 9401 atoms

Performance: 4.059 ns/day, 5.912 hours/ns, 23.492 timesteps/s, 220.844 katom-step/s
91.6% CPU use with 30 MPI tasks x 1 OpenMP threads

MPI task timing breakdown:
Section |  min time  |  avg time  |  max time  |%varavg| %total
---------------------------------------------------------------
Pair    | 540.51     | 1020.2     | 1220.8     | 673.1 | 11.98
Bond    | 0.16316    | 0.2292     | 0.31736    |   7.2 |  0.00
Kspace  | 2749.5     | 2938.8     | 3413.6     | 395.3 | 34.52
Neigh   | 451.09     | 453.4      | 456.66     |   7.4 |  5.33
Comm    | 261.4      | 292.05     | 315.52     |  89.6 |  3.43
Output  | 9.1844     | 12.445     | 15.285     |  51.5 |  0.15
Modify  | 3766.6     | 3783.3     | 3800.5     |  15.8 | 44.44
Other   |            | 13.21      |            |       |  0.16

Nlocal:        313.367 ave         361 max         270 min
Histogram: 3 4 6 3 2 0 1 2 7 2
Nghost:        7650.77 ave        9390 max        6002 min
Histogram: 12 0 0 0 0 0 1 11 0 6
Neighs:         213180 ave      265929 max      115102 min
Histogram: 4 2 0 0 0 1 5 6 8 4

Total # of neighbors = 6395386
Ave neighs/atom = 680.28784
Ave special neighs/atom = 1.6919477
Neighbor list builds = 19298
Dangerous builds = 13162
    #write_data structure.data
    undump alldump
    next l
    unfix conp2
    jump SELF loop_start
    variable l_tf equal ${l}/2
    variable l_tf equal 2/2
    # fix id group1 electrode/conp psi1 eta couple group2 psi2 write_inv
    # fix conp1 lower electrode/conp 0.0 5 couple upper 0.0 write_inv inv.out etypes 1*6 # Write call to not have to determine the matrix twice
    fix conp1 lower electrode/conp 0.0 2.925 couple upper 0.0# Write call to not have to determine the matrix twice
1440 atoms in group conp_group
    fix_modify conp1 tf 1 ${l_tf} ${d}
    fix_modify conp1 tf 1 1 ${d}
    fix_modify conp1 tf 1 1 6.81038626666667
    fix_modify conp1 tf 6 ${l_tf} ${d}
    fix_modify conp1 tf 6 1 ${d}
    fix_modify conp1 tf 6 1 6.81038626666667
    # fix conp1 lower electrode/conp 0.0 5 couple upper 0.0 read_inv inv.out # Write call to not have to determine the matrix twice

    # ======== equilibrate for ? ns ========
    reset_timestep 0
    thermo 50
    # dump equilxtc h2o xtc 50 equil.xtc
    run 500 # 1 ps, ~ correlation time of spce water
PPPM/electrode initialization ...
  using 12-bit tables for long-range coulomb (src/kspace.cpp:342)
  G vector (1/distance) = 0.23783325
  grid = 40 45 100
  stencil order = 5
  estimated absolute RMS force accuracy = 0.00036352839
  estimated relative force accuracy = 1.094755e-06
  using double precision FFTW3
  3d grid and FFT values/proc = 45144 22200
Generated 15 of 15 mixed pair_coeff terms from arithmetic mixing rule
WARNING: Neighbor exclusions used with KSpace solver may give inconsistent Coulombic energies (src/neighbor.cpp:654)
Neighbor list info ...
  update: every = 1 steps, delay = 10 steps, check = yes
  max neighbors/atom: 2000, page size: 100000
  master list distance cutoff = 16
  ghost atom cutoff = 16
  binsize = 8, bins = 6 6 7
  2 neighbor lists, perpetual/occasional/extra = 2 0 0
  (1) pair lj/cut/coul/long, perpetual
      attributes: half, newton on
      pair build: half/bin/newton
      stencil: half/bin/3d
      bin: standard
  (2) fix electrode/conp, perpetual, copy from (1)
      attributes: half, newton on
      pair build: copy
      stencil: none
      bin: none
Per MPI rank memory allocation (min/avg/max) = 27.35 | 27.86 | 29.57 Mbytes
   Step         PotEng         KinEng         E_coul         E_long         E_vdwl      c_watertemp  
         0  -29847.671      4761.9762      92485.565     -127438.1       5104.8622      300.91248    
        50  -29799.696      4734.3796      92527.498     -127440.73      5113.5396      299.16862    
       100  -29784.691      4727.7194      92867.768     -127451.41      4798.9488      298.74776    
       150  -29772.308      4729.91        92899.67      -127444.54      4772.5603      298.88619    
       200  -29766.845      4748.0933      92749.737     -127444.08      4927.4972      300.03521    
       250  -29662.255      4673.8917      92804.713     -127445.59      4978.6205      295.34636    
       300  -29659.078      4695.9095      92931.65      -127445.75      4855.0186      296.73767    
       350  -29717.157      4768.0222      92932.951     -127448.3       4798.1903      301.29452    
       400  -29719.044      4781.176       92986.875     -127444.2       4738.2832      302.12572    
       450  -29680.606      4777.747       92977.77      -127446.47      4788.0898      301.90905    
       500  -29644.266      4787.9399      92901.789     -127450.94      4904.8892      302.55314    
Loop time of 14.1451 on 30 procs for 500 steps with 9401 atoms

Performance: 6.108 ns/day, 3.929 hours/ns, 35.348 timesteps/s, 332.307 katom-step/s
94.2% CPU use with 30 MPI tasks x 1 OpenMP threads

MPI task timing breakdown:
Section |  min time  |  avg time  |  max time  |%varavg| %total
---------------------------------------------------------------
Pair    | 1.163      | 2.6772     | 3.6467     |  48.1 | 18.93
Bond    | 0.00033037 | 0.00062653 | 0.0010141  |   0.0 |  0.00
Kspace  | 3.3914     | 4.3563     | 5.8746     |  37.7 | 30.80
Neigh   | 1.0332     | 1.04       | 1.0486     |   0.4 |  7.35
Comm    | 0.38424    | 0.42239    | 0.46126    |   3.3 |  2.99
Output  | 0.0010777  | 0.0011078  | 0.0014519  |   0.2 |  0.01
Modify  | 5.6009     | 5.6271     | 5.6499     |   0.6 | 39.78
Other   |            | 0.02037    |            |       |  0.14

Nlocal:        313.367 ave         366 max         273 min
Histogram: 4 7 5 1 1 0 1 5 3 3
Nghost:        7646.43 ave        9333 max        6010 min
Histogram: 12 0 0 0 0 0 0 12 0 6
Neighs:         212960 ave      271228 max      124138 min
Histogram: 5 1 0 0 0 3 4 11 4 2

Total # of neighbors = 6388805
Ave neighs/atom = 679.58781
Ave special neighs/atom = 1.6919477
Neighbor list builds = 48
Dangerous builds = 31

    write_dump solvent xyz water_ions.xyz
    write_data equilibrated_structure.data
System init for write_data ...
PPPM/electrode initialization ...
[...]
    129500  -29900.491      4795.1394      92624.296     -127451.74      4926.9532      303.00808    
    130000  -29751.965      4691.9391      92815.122     -127450.76      4883.6693      296.48679    
    130500  -29758.513      4764.2849      92800.807     -127441.28      4881.9586      301.05836    
    131000  -29636.409      4727.1953      93044.917     -127441.36      4760.0334      298.71464    
    131500  -29665.575      4788.4138      92959.629     -127450.8       4825.5945      302.58308    
    132000  -29877.161      4693.7563      92630.478     -127449.26      4941.6236      296.60161    
    132500  -29816.107      4709.8243      92771.07      -127442.66      4855.481       297.61696    
    133000  -29838.17       4733.2435      92620.049     -127431.82      4973.6011      299.09683    
    133500  -29777.712      4765.8961      92808.982     -127456.56      4869.8694      301.16017    
    134000  -29558.739      4763.221       93127.145     -127447.54      4761.6587      300.99114    
    134500  -29907.576      4756.4938      92540.469     -127447.96      4999.9136      300.56604    
    135000  -29954.623      4766.6539      92462.956     -127444.29      5026.7144      301.20806    
    135500  -29903.166      4807.2201      92503.031     -127444.84      5038.6385      303.77147    
    136000  -29948.291      4698.0811      92522.454     -127451.13      4980.384       296.8749     
    136500  -29967.938      4697.3608      92430.248     -127441.19      5043.0014      296.82939    
    137000  -29881.685      4739.2995      92647.539     -127448.93      4919.7091      299.47952    
    137500  -29755.56       4734.0083      92783.706     -127445.28      4906.0149      299.14517    
    138000  -29854.631      4636.3548      92646.175     -127448.79      4947.9852      292.97437    
    138500  -29743.047      4736.3146      92742.762     -127439.8       4953.9932      299.2909     
    139000  -29831.089      4719.2041      92662.955     -127441.21      4947.1691      298.20968    
    139500  -29760.357      4654.111       92800.586     -127444.15      4883.212       294.0964     
    140000  -29742.485      4752.9184      92817.924     -127445.97      4885.563       300.34011    
    140500  -29916.278      4804.9564      92573.885     -127441.44      4951.2785      303.62842    
    141000  -29826.126      4747.6721      92774.715     -127451.95      4851.113       300.00859    
    141500  -29890.113      4870.0117      92539.868     -127450.5       5020.5143      307.73931    
    142000  -29837.012      4774.226       92544.516     -127445.4       5063.8742      301.68655    
    142500  -29861.068      4699.6383      92643.279     -127454.44      4950.0962      296.9733     
    143000  -29735.992      4770.6976      92878.261     -127445.23      4830.979       301.46359    
    143500  -29721.015      4819.6792      92736.39      -127452.05      4994.6439      304.55877    
    144000  -29772.798      4749.9528      92729.932     -127448.46      4945.73        300.15271    
    144500  -29690.118      4706.1222      92893.584     -127438.03      4854.3307      297.38302    
    145000  -29797.543      4737.1997      92831.996     -127442.65      4813.1102      299.34683    
    145500  -29624.94       4762.6098      92950.609     -127446.73      4871.1851      300.95251    
    146000  -29822.973      4710.5056      92886.935     -127452.15      4742.2399      297.66001    
    146500  -29903.565      4830.0455      92657.649     -127453.58      4892.3637      305.21382    
    147000  -29833          4820.7951      92728.435     -127452.97      4891.5306      304.62928    
    147500  -29790.324      4757.4854      92932.976     -127444.12      4720.818       300.6287     
    148000  -29867.007      4673.6158      92661.279     -127444.99      4916.7086      295.32892    
    148500  -29826.677      4760.7191      92630.75      -127444.73      4987.3002      300.83304    
    149000  -29786.071      4687.6224      92698.073     -127449.04      4964.8939      296.21401    
    149500  -29911.816      4791.2347      92743.14      -127451.88      4796.9205      302.76134    
    150000  -29723.199      4725.4714      92961.961     -127444.11      4758.9526      298.60571    
    150500  -29875.894      4681.0931      92618.502     -127444.59      4950.1958      295.80142    
    151000  -29793.703      4749.9252      92770.013     -127444.17      4880.4496      300.15096    
    151500  -29663.926      4738.0148      92944.868     -127447.81      4839.0118      299.39834    
    152000  -29691.751      4732.1291      92908.015     -127442.73      4842.9614      299.02641    
    152500  -29836.159      4723.2748      92793.236     -127447.34      4817.9398      298.46691    
    153000  -29817.696      4777.4265      92734.757     -127446.53      4894.0726      301.88879    
    153500  -29759.566      4770.7635      92838.101     -127448.43      4850.7655      301.46775    
    154000  -29785.35       4738.4242      92821.126     -127450.21      4843.7334      299.42421    
    154500  -29737.758      4745.1588      92960.308     -127450.08      4752.0116      299.84977    
    155000  -29792.611      4650.0101      92751.16      -127442.01      4898.239       293.83726    
    155500  -29989.506      4654.8584      92361.648     -127453.61      5102.4562      294.14363    
    156000  -29725.791      4771.6633      92835.809     -127449.98      4888.3847      301.52461    
    156500  -29886.605      4778.0299      92655.196     -127445.89      4904.091       301.92692    
    157000  -29949.29       4727.041       92447.885     -127451.73      5054.5522      298.7049     
    157500  -29899.242      4720.4766      92521.14      -127449.84      5029.4573      298.29009    
    158000  -29883.505      4792.4229      92701.907     -127447.43      4862.0163      302.83642    
    158500  -29589.381      4826.1248      93053.025     -127440.82      4798.4099      304.96607    
    159000  -29660.193      4736.0315      92988.771     -127438.14      4789.1737      299.27301    
    159500  -29768.364      4658.4991      92948.565     -127450.47      4733.5412      294.37369    
    160000  -29769.276      4721.8521      92830.394     -127444.38      4844.7107      298.37701    
    160500  -29712.314      4744.3721      93023.767     -127450.43      4714.3521      299.80006    
    161000  -29753.524      4751.555       92676.989     -127441.5       5010.9908      300.25395    
    161500  -29851.576      4630.8164      92763.669     -127450.78      4835.5358      292.6244     
    162000  -29873.046      4685.2104      92679.232     -127445.36      4893.08        296.06159    
    162500  -29931.084      4800.7749      92660.134     -127450.96      4859.7409      303.36419    
    163000  -29884.541      4761.1053      92595.503     -127445.4       4965.3521      300.85745    
    163500  -29786.585      4831.2853      92638.498     -127453.57      5028.4909      305.29217    
    164000  -29863.321      4717.7831      92649.259     -127447.77      4935.1939      298.11989    
    164500  -29918.467      4673.4405      92692.141     -127452.92      4842.3088      295.31784    
    165000  -29978.972      4627.302       92442.449     -127448.4       5026.9751      292.40232    
    165500  -29754.489      4766.4584      92664.002     -127448.24      5029.7463      301.19571    
    166000  -29948.024      4875.816       92601.573     -127447.23      4897.6361      308.10609    
    166500  -29743.746      4692.7225      92729.493     -127443.31      4970.0702      296.53629    
    167000  -29860.506      4786.7469      92499.258     -127451.12      5091.3513      302.47775    
    167500  -29810.853      4820.8544      92642.405     -127439.07      4985.8096      304.63303    
    168000  -29930.258      4714.4244      92545.476     -127449.49      4973.7585      297.90764    
    168500  -29867.63       4777.6803      92595.227     -127445.82      4982.967       301.90483    
    169000  -29767.924      4670.2181      92862.297     -127450.52      4820.2954      295.11422    
    169500  -29786.2        4871.3882      92668.894     -127446.56      4991.4705      307.82629    
    170000  -29635.827      4789.6584      92982.971     -127452.28      4833.4843      302.66173    
    170500  -29796.38       4833.8195      92832.07      -127437.92      4809.4693      305.4523     
    171000  -29839.99       4768.3457      92878.13      -127448.32      4730.1978      301.31497    
    171500  -29741.929      4766.0367      92831.194     -127439.55      4866.4294      301.16906    
    172000  -29874.929      4755.6508      92735.621     -127441.24      4830.6932      300.51277    
    172500  -29676.687      4753.8215      92818.222     -127430.43      4935.5178      300.39718    
    173000  -29686.081      4737.7174      92851.535     -127443.86      4906.2449      299.37955    
    173500  -29799.349      4716.2463      92738.445     -127451.59      4913.7988      298.02277    
    174000  -29820.409      4701.1329      92567.469     -127443.96      5056.0824      297.06775    
    174500  -29754.273      4747.4812      92658.308     -127452.3       5039.7185      299.99653    
    175000  -29758.244      4797.9571      92858.829     -127448.43      4831.3621      303.18613    
    175500  -29671.673      4764.7334      93046.471     -127451.53      4733.3879      301.0867     
    176000  -29810.473      4719.2322      92840.496     -127449.53      4798.5603      298.21146    
    176500  -29830.678      4773.4689      92689.692     -127447.97      4927.6042      301.63871    
    177000  -29645.932      4804.2374      92790.346     -127443.35      5007.0678      303.58299    
    177500  -29800.594      4677.7655      92736.694     -127444.67      4907.3845      295.59114    
    178000  -29781.154      4698.6943      92801.121     -127442.12      4859.8448      296.91365    
    178500  -29762.486      4722.2712      92772.174     -127453.35      4918.6917      298.40349    
    179000  -29737.753      4808.1872      92976.751     -127449.98      4735.4731      303.83258    
    179500  -29875.983      4704.8144      92751.623     -127447.34      4819.7313      297.30038    
    180000  -29814.008      4773.1395      92830.725     -127447.92      4803.1904      301.61789    
    180500  -29700.767      4790.9335      92764.534     -127444.31      4979.013       302.74231    
    181000  -29852.195      4858.2289      92824.655     -127457.96      4781.1109      306.99475    
    181500  -29837.782      4764.9586      92644.382     -127445.82      4963.6512      301.10093    
    182000  -29672.767      4766.1564      92948.265     -127441.78      4820.7504      301.17663    
    182500  -29951.502      4665.028       92478.986     -127444.82      5014.3359      294.78625    
    183000  -29770.415      4739.2096      92971.314     -127450.65      4708.919       299.47384    
    183500  -29814.455      4732.0811      92786.241     -127439.51      4838.8168      299.02338    
    184000  -29859.734      4803.7757      92662.159     -127449.46      4927.5687      303.55382    
    184500  -29857.606      4779.1604      92743.433     -127445.49      4844.4487      301.99836    
    185000  -29963.985      4784.2646      92586.532     -127449.01      4898.4927      302.3209     
    185500  -29830.412      4747.323       92664.73      -127447.16      4952.0163      299.98653    
    186000  -29833.805      4724.4164      92706.059     -127449.59      4909.7218      298.53905    
    186500  -29710.316      4812.0532      92877.461     -127444.91      4857.1312      304.07688    
    187000  -29822.818      4712.5083      92729.97      -127452.78      4899.9948      297.78657    
    187500  -29863.42       4726.4674      92652.799     -127449.93      4933.7081      298.66865    
    188000  -29765.647      4710.6098      92761.106     -127446.31      4919.5619      297.6666     
    188500  -29829.496      4764.1685      92621.645     -127454.28      5003.1414      301.05101    
    189000  -29790.175      4825.4078      92767.409     -127439.13      4881.5499      304.92076    
    189500  -29867.154      4748.5491      92707.269     -127450.44      4876.0194      300.06401    
    190000  -29925.701      4765.7072      92625.623     -127450.63      4899.3019      301.14824    
    190500  -29782.8        4742.056       92692.726     -127448.22      4972.6892      299.65371    
    191000  -29710.982      4707.7225      92894.39      -127444.38      4839.0053      297.48415    
    191500  -29808.028      4706.7872      92735.6       -127442.67      4899.045       297.42504    
    192000  -29878.028      4802.5119      92588.816     -127443.14      4976.2934      303.47395    
    192500  -29890.59       4773.425       92493.163     -127436.82      5053.0689      301.63594    
    193000  -29808.092      4774.868       92764.461     -127450.66      4878.1049      301.72711    
    193500  -29778.792      4734.3666      92856.502     -127443.25      4807.956       299.16781    
    194000  -29661.217      4789.2044      92836.103     -127448.34      4951.0178      302.63305    
    194500  -29756.698      4808.0455      92761.969     -127445.21      4926.548       303.82362    
    195000  -29815.115      4807.963       92798.878     -127446.46      4832.4628      303.81841    
    195500  -29854.594      4751.8885      92632.006     -127452.08      4965.4834      300.27503    
    196000  -29886.22       4609.3921      92535.891     -127446.14      5024.028       291.27058    
    196500  -29844.129      4800.9295      92642.845     -127448.11      4961.1354      303.37396    
    197000  -29788.496      4760.3909      92694.468     -127447.99      4965.0287      300.8123     
    197500  -29716.099      4779.7044      92870.729     -127447.12      4860.295       302.03273    
    198000  -29848.94       4741.2045      92794.13      -127444.45      4801.3779      299.5999     
    198500  -29707.621      4791.9152      93078.083     -127450.61      4664.908       302.80434    
    199000  -29663.586      4790.3531      92902.223     -127454.28      4888.4684      302.70563    
    199500  -29747.98       4750.4688      92872.852     -127446.08      4825.2442      300.18532    
    200000  -29718.791      4763.3782      92942.329     -127447.85      4786.7301      301.00107    
    200500  -29808.605      4726.3532      92758.765     -127445.95      4878.5849      298.66143    
    201000  -29755.238      4703.2055      92835.126     -127452.25      4861.8871      297.19872    
    201500  -29721.826      4730.1786      92937.406     -127437.37      4778.1411      298.90316    
    202000  -29773.87       4691.5463      92776.795     -127441.23      4890.5636      296.46196    
    202500  -29761.659      4756.6195      92809.249     -127449.04      4878.1305      300.57398    
    203000  -29656.937      4649.2451      92959.674     -127440.82      4824.2062      293.78892    
    203500  -29666.407      4713.9083      92849.11      -127448.16      4932.6398      297.87503    
    204000  -29793.938      4744.1548      92881.045     -127446.4       4771.416       299.78633    
    204500  -29836.742      4733.6216      92784.495     -127448.11      4826.8771      299.12073    
    205000  -29784.193      4788.3412      92727.727     -127449.12      4937.2047      302.5785     
    205500  -29927.777      4812.3332      92566.929     -127438.13      4943.4206      304.09457    
    206000  -29718.631      4721.359       92725.67      -127436.1       4991.7958      298.34585    
    206500  -29941.089      4700.9226      92445.314     -127445.35      5058.9432      297.05446    
    207000  -29819.664      4738.4574      92870.458     -127451.91      4761.7863      299.42631    
    207500  -29663.166      4750.6114      92830         -127446.5       4953.3326      300.19433    
    208000  -29725.964      4839.3105      92879.638     -127444.92      4839.3186      305.79928    
    208500  -29919.831      4738.5576      92768.819     -127445.79      4757.1397      299.43264    
    209000  -29855.373      4719.7969      92934.085     -127452.2       4662.7449      298.24714    
    209500  -29706.162      4761.6329      92799.708     -127442.21      4936.3398      300.89078    
    210000  -29773.919      4752.5914      92772.079     -127451.49      4905.4877      300.31945    
    210500  -29774.53       4787.3257      92814.095     -127445.36      4856.7363      302.51433    
    211000  -29768.668      4814.8324      92820.147     -127448.21      4859.3926      304.2525     
    211500  -29775.453      4782.2049      92619.271     -127447.64      5052.9163      302.19074    
    212000  -29750.119      4734.5976      92746.743     -127440.81      4943.9449      299.18241    
    212500  -29854.263      4717.8334      92695.531     -127446.77      4896.9725      298.12306    
    213000  -29764.229      4760.8478      92778.926     -127445.98      4902.8197      300.84117    
    213500  -29829.621      4788.3046      92720.57      -127449.12      4898.9314      302.57619    
    214000  -29990.178      4690.2469      92539.238     -127450.13      4920.7169      296.37985    
    214500  -29730.306      4670.2726      92868.2       -127451.54      4853.0371      295.11766    
    215000  -29786.778      4700.3335      92798.891     -127443.44      4857.7753      297.01723    
    215500  -29773.87       4809.9622      92739.695     -127443.76      4930.1967      303.94474    
    216000  -29663.732      4729.3827      92893.621     -127445.99      4888.6372      298.85287    
    216500  -29814.249      4706.3919      92673.299     -127447.07      4959.5234      297.40007    
    217000  -29755.216      4778.408       92799.004     -127446.48      4892.2595      301.95081    
    217500  -29812.155      4814.0157      92836.914     -127453.23      4804.1641      304.20088    
    218000  -29757.26       4733.7819      92799.236     -127447.12      4890.6271      299.13086    
    218500  -29909.959      4791.82        92607.886     -127445.34      4927.4941      302.79832    
    219000  -29739.066      4771.8935      92812.912     -127450.25      4898.2688      301.53916    
    219500  -29862.531      4773.3004      92696.794     -127441.23      4881.9047      301.62806    
    220000  -29747.359      4631.2605      92892.459     -127451.06      4811.2461      292.65246    
Loop time of 5160.23 on 30 procs for 200000 steps with 9401 atoms

Performance: 6.697 ns/day, 3.583 hours/ns, 38.758 timesteps/s, 364.363 katom-step/s
94.1% CPU use with 30 MPI tasks x 1 OpenMP threads

MPI task timing breakdown:
Section |  min time  |  avg time  |  max time  |%varavg| %total
---------------------------------------------------------------
Pair    | 471.59     | 906.39     | 1429.9     | 873.9 | 17.56
Bond    | 0.093839   | 0.20119    | 0.37426    |  13.1 |  0.00
Kspace  | 1054.3     | 1574.5     | 2008.1     | 664.3 | 30.51
Neigh   | 411.13     | 413.92     | 417.2      |   7.4 |  8.02
Comm    | 133.49     | 153.97     | 170.05     |  71.8 |  2.98
Output  | 5.9085     | 7.7123     | 9.4809     |  38.9 |  0.15
Modify  | 2083.6     | 2095.7     | 2106.9     |  11.4 | 40.61
Other   |            | 7.809      |            |       |  0.15

Nlocal:        313.367 ave         372 max         271 min
Histogram: 6 4 7 1 0 0 3 1 5 3
Nghost:        7639.87 ave        9342 max        5938 min
Histogram: 12 0 0 0 0 0 0 12 0 6
Neighs:         212671 ave      271762 max      128867 min
Histogram: 5 1 0 0 0 6 7 5 3 3

Total # of neighbors = 6380121
Ave neighs/atom = 678.66408
Ave special neighs/atom = 1.6919477
Neighbor list builds = 19308
Dangerous builds = 13245
    #write_data structure.data
    undump alldump
    next l
    unfix conp2
    jump SELF loop_start
label loop_end
Total wall time: 17:37:09
