7961
 Atoms. Timestep: 500
3 8.70264 14.4019 -18.6798
3 2.7509 32.3116 -20.1552
3 27.7437 3.27555 -3.80763
3 27.4733 4.35639 -5.00149
3 24.9847 20.204 8.27491
3 24.4063 19.2062 7.11889
2 24.4853 20.1597 7.40965
3 21.9181 7.30419 17.7838
2 22.1504 6.33175 17.8045
3 36.1838 7.18124 1.3545
2 33.3784 13.7029 14.3656
3 33.9932 13.1873 13.7688
2 35.7269 7.16174 0.465208
2 4.27887 22.3308 -4.96622
3 3.54168 22.577 -4.33695
3 4.06585 22.6757 -5.88036
2 20.3448 19.9625 -21.1116
3 20.5877 19.2856 -20.4168
3 19.4076 19.801 -21.421
3 16.2138 9.86687 -20.9215
2 37.153 28.7818 3.25882
3 36.5799 28.0095 3.53285
2 27.5096 8.0224 -6.74902
3 28.406 7.85081 -7.15765
3 27.2632 8.98307 -6.87718
2 9.67621 0.0527297 -7.49272
3 8.90381 44.0662 -6.91221
3 9.83502 43.6085 -8.17314
2 37.2422 16.8445 13.5219
3 36.8766 17.2416 14.3637
2 32.3811 31.3456 8.90001
3 32.3385 30.3777 8.65219
2 39.2495 26.0826 -10.9877
3 40.0119 26.667 -10.71
3 39.028 25.449 -10.2464
2 1.41227 5.02416 -8.69748
3 0.947425 4.23609 -8.29393
3 1.72282 4.79193 -9.61923
3 15.2632 33.5456 -22.0678
2 8.21089 26.7408 -22.0949
3 7.90377 25.7961 -22.2103
2 33.8749 15.5059 16.3709
3 33.7459 14.8417 15.6345
2 29.3227 36.2522 -21.7825
3 29.2913 35.7695 -20.9073
2 8.18927 9.15453 -1.73207
3 31.1495 40.4548 7.58816
3 36.4591 40.9278 20.2335
2 33.1288 -0.00727018 0.271802
3 33.1152 43.3479 0.672602
3 2.74555 27.112 1.77799
3 4.32332 26.8673 1.4354
3 8.28887 28.6673 -17.9302
2 3.38661 26.723 1.11641
3 17.1814 0.015537 -8.09462
3 17.5009 43.0088 -9.05974
2 17.7484 43.4708 -8.20808
3 27.4754 40.0766 13.3619
2 27.6884 39.7125 14.2685
2 10.0411 43.8112 -3.68422
3 9.04726 43.7229 -3.61787
2 20.1615 22.691 -10.2619
3 20.8449 22.2997 -10.8782
3 19.2958 22.2024 -10.3707
2 29.7038 10.8683 12.0346
3 30.0328 10.4495 12.881
3 29.157 11.6765 12.2532
3 16.3588 40.6175 -8.36919
3 28.7699 40.6012 -20.8174
2 29.519 30.2143 4.44908
3 29.04 30.3742 3.58596
3 30.1422 29.439 4.34582
2 28.8958 3.27098 21.4771
3 29.5786 2.5551 21.623
3 29.3175 4.16705 21.6159
3 35.6696 12.348 8.85513
2 1.32554 10.4186 -20.9817
3 2.18756 9.91857 -21.0646
2 33.1214 26.9557 17.1238
3 33.2089 27.5882 16.3542
3 32.1582 26.8731 17.3796
2 21.5301 11.0237 15.2674
3 20.8881 11.5073 15.8623
3 21.1933 11.0454 14.3261
3 27.3209 37.7609 -18.9094
3 10.7327 31.063 -16.8932
2 7.17891 5.16572 -12.2529
3 6.24632 5.09569 -11.8988
3 7.19977 4.85053 -13.2017
2 27.0191 9.25177 17.4032
3 27.726 8.98244 16.7492
3 26.1166 9.09466 17.002
2 38.0122 22.143 10.8913
2 36.4103 44.1287 4.11203
3 5.84853 41.5781 -1.17777
3 5.80899 41.9317 -2.7715
3 38.0867 38.6474 -21.6677
2 5.26108 41.8538 -1.9386
3 15.4512 16.7638 8.89731
3 39.889 35.5022 8.33956
3 40.8074 36.3064 7.25488
3 16.2751 18.0893 8.41692
2 16.2363 17.352 9.09135
3 24.2523 14.6275 -16.6584
3 3.34672 15.1217 6.4351
2 4.22459 14.6559 6.54641
3 25.5731 43.0972 5.32949
2 37.9522 7.02267 9.90883
3 38.772 7.58898 9.82463
2 16.9451 1.10649 21.8296
3 17.8641 1.46707 21.6698
3 16.2732 1.69603 21.3813
2 11.1732 15.2576 -13.6305
3 11.6355 15.7252 -14.3839
3 11.0374 14.2958 -13.8684
2 14.2365 25.809 20.3422
3 13.6575 25.8422 21.1568
3 27.1533 9.96823 20.3868
2 27.3678 9.05936 20.0291
3 7.29547 29.9358 1.61431
2 6.31075 30.065 1.73106
2 1.85614 32.6349 -19.8472
3 3.29221 23.3624 4.05815
3 0.0331719 0.350531 18.938
3 9.94983 41.4707 20.5237
2 15.9119 10.786 -20.6686
3 15.3605 10.7384 -19.8357
2 40.9827 14.8072 10.7554
3 41.8243 15.1154 10.3118
3 41.1853 14.5194 11.6914
2 9.99604 14.6934 1.69286
3 9.43626 13.9951 1.24676
3 10.4671 15.2369 0.998109
3 2.04325 42.1748 -13.6446
3 37.228 17.5318 12.7957
2 20.9308 18.8672 20.8702
3 20.8221 19.7833 21.2561
3 21.6941 18.866 20.2242
2 41.2433 28.0155 -9.67359
3 41.5746 28.9375 -9.8738
3 41.9306 27.5231 -9.13945
3 2.86853 40.9286 -14.3021
2 14.7588 34.3128 -21.6717
3 15.2708 35.1593 -21.8177
2 23.6529 8.8361 -21.3609
3 22.6945 8.82884 -21.6462
3 23.9697 9.78122 -21.2806
2 33.8068 0.727928 -5.87132
3 34.3814 0.782766 -5.05469
3 34.3528 0.397973 -6.64143
2 1.96199 41.2605 -14.0414
3 13.6516 35.8138 17.1685
3 13.1699 34.824 18.3747
3 8.82734 9.65439 -2.31773
3 7.72005 8.45508 -2.27115
2 4.01731 31.2745 -21.9635
3 5.01133 31.3807 -21.9888
2 13.8882 35.0018 17.702
2 35.6102 9.64805 -3.542
3 36.2249 9.77775 -4.32005
3 31.1278 42.0877 7.58776
2 30.6272 41.2645 7.85582
3 0.639415 8.26915 -18.8448
2 18.3103 15.5279 14.0484
3 18.7758 12.7164 16.3472
3 5.60561 28.8934 21.0616
3 6.99813 28.8356 20.2106
2 15.3888 40.7309 -8.15419
3 15.2335 41.6485 -7.7883
2 18.6164 16.1219 -14.2899
3 18.2444 17.0436 -14.1802
3 19.5909 16.1795 -14.5068
2 26.8723 11.5202 -15.254
3 27.3411 12.0858 -14.5755
3 27.1653 11.7888 -16.1716
2 6.43991 29.392 20.8262
3 34.5012 39.0784 -4.09214
2 36.3734 12.3652 8.14491
3 35.9769 12.7021 7.2909
2 40.1975 35.7019 -10.5319
3 41.1675 35.9416 -10.4922
3 39.6614 36.4025 -10.0609
2 38.2926 22.1234 16.3408
3 38.827 22.7212 16.9383
3 37.3957 22.5333 16.175
3 34.3081 40.6905 -3.91777
2 27.9198 37.3843 -18.2027
3 28.6927 38.002 -18.0569
2 27.216 22.0615 -7.51747
3 27.9618 22.1895 -6.86363
3 26.8276 22.9509 -7.7584
2 23.9389 0.641837 19.911
3 23.897 0.88629 18.9422
3 24.7551 0.0893625 20.0804
2 34.9583 39.9661 -4.147
3 37.1352 43.5231 3.78371
3 37.559 22.6428 11.6294
3 36.2367 43.9466 5.07988
2 25.6548 23.3875 13.8767
3 25.7771 23.6181 14.842
3 28.6129 28.527 8.5737
3 27.3311 29.0055 9.46512
2 36.0836 14.8706 -1.81316
3 27.9629 29.2516 21.4664
3 29.3675 28.9794 20.6792
2 28.9034 29.5676 21.3416
3 33.8265 37.6863 -11.2598
3 9.61295 24.4526 7.26344
3 10.1051 23.4207 8.42938
3 15.0577 26.3589 20.4942
2 9.34649 23.987 8.10736
3 20.3107 38.1124 -18.1482
3 14.2662 18.0947 -15.2676
3 31.3956 30.3575 -22.034
2 4.4104 34.2916 7.86384
3 3.34209 29.8925 -21.2772
3 31.3227 35.8971 6.74567
3 1.78274 43.0978 -8.1798
3 24.6235 42.2932 -14.7339
3 18.8842 13.2709 -6.89157
3 39.5533 10.0915 20.405
3 30.5294 19.3021 14.0009
3 22.1084 16.3238 2.56023
3 29.1981 9.99477 0.825347
3 24.0941 42.5874 3.60728
3 18.3913 33.7298 -19.1263
3 28.9378 6.38741 -13.8059
2 19.1595 33.2028 -18.7626
3 9.76276 41.0026 -12.0159
2 9.85245 41.9933 -11.9142
2 32.7829 38.3231 12.8271
3 1.48167 34.292 -8.33708
3 2.62131 33.5664 -9.25436
2 24.7717 25.4569 9.93814
3 24.0154 24.8528 9.68693
3 24.4792 26.0693 10.6726
2 14.7215 8.04888 -17.4408
3 14.5275 9.00081 -17.6778
3 15.7064 7.93105 -17.3141
3 2.7168 11.7904 2.6279
3 9.05531 9.32492 3.85857
2 16.3533 8.6226 15.8503
3 15.8015 7.87859 16.2271
3 16.1468 8.7312 14.8779
2 10.2042 15.4408 -10.8987
3 10.138 14.5067 -10.5479
3 10.7392 15.4425 -11.7436
3 7.91796 35.5393 -18.316
3 9.89454 20.7904 -16.4193
3 17.6383 40.0176 -1.46307
2 7.15797 5.74584 -5.59248
3 6.2431 5.38578 -5.77513
3 7.74424 5.58464 -6.38639
2 11.3992 3.88142 9.59103
3 11.6946 4.83542 9.64206
3 11.3801 3.5891 8.6349
3 7.29563 13.8704 14.2023
2 30.8288 0.88999 -17.7742
3 30.02 1.47629 -17.8204
2 1.99365 35.4265 -17.7379
3 1.09885 35.8438 -17.5792
2 12.7252 15.2979 10.6073
3 39.7656 12.0246 21.4502
3 13.0452 15.9484 9.91854
2 1.64895 36.9649 -2.68884
2 39.4785 12.6645 22.163
3 34.6399 43.9729 20.0871
2 35.552 44.2173 20.4164
3 0.333347 20.6744 11.0152
2 42.2577 21.3424 10.7033
3 30.912 6.92648 -13.6816
3 10.471 22.4639 4.40265
3 37.9316 11.4169 -6.19659
3 39.1564 14.712 5.16286
2 9.00785 35.0981 7.77478
3 35.4167 11.4696 -22.8315
3 4.58344 27.079 -10.5694
2 13.3562 27.2307 15.7893
3 12.8323 28.0545 15.573
3 14.178 27.483 16.3002
2 32.9621 41.6376 -3.90863
3 32.2197 41.0035 -3.69233
3 32.6999 42.5632 -3.63549
3 24.0313 43.4284 -10.1158
2 1.86959 36.2906 11.5257
3 4.7598 25.4579 -10.4836
3 2.32715 36.2732 10.6367
2 22.0269 11.9145 -2.1117
3 21.1586 11.4438 -1.9549
3 22.7835 11.3086 -1.86579
2 17.4929 19.5313 -1.49458
3 17.458 18.8113 -2.18767
3 18.3523 19.4645 -0.987566
3 25.0578 41.3583 21.6565
2 21.1548 5.4974 13.8366
3 21.1141 4.58144 13.4374
2 4.6633 26.2371 -11.1029
2 38.3148 35.9897 -5.56064
3 37.8537 35.8694 -4.68151
3 38.6506 35.1052 -5.88465
2 15.2949 23.7061 -0.478412
3 16.1242 23.1483 -0.511015
3 15.2709 24.3143 -1.27185
2 16.2817 38.355 -14.2082
3 16.6961 37.4528 -14.0886
2 28.3577 7.40814 21.8648
3 28.21 7.94159 21.0319
3 38.9452 42.1299 3.06883
2 28.6781 21.8797 0.291086
3 29.4132 21.9012 -0.386614
2 37.9882 42.3244 2.85372
2 34.5191 8.52998 3.80162
3 34.8688 7.83338 4.4281
3 34.2441 8.09797 2.94269
2 38.1869 41.8865 7.12027
2 11.7045 30.7325 -21.6648
2 18.3324 16.5118 -0.531909
3 28.1451 19.1342 4.41971
3 28.7841 20.2929 5.37663
2 12.3256 33.2378 -18.4997
3 11.9895 32.3698 -18.1341
3 18.8547 9.43381 4.96216
3 7.11175 39.8045 19.9448
2 7.14303 39.4138 19.0248
3 20.1872 30.8945 13.0846
2 19.7807 30.7345 13.9842
3 15.1739 3.43578 2.09613
2 16.1295 4.73133 -19.3572
3 15.5203 5.44726 -19.6982
3 16.8001 4.50056 -20.0622
2 10.4699 6.50225 14.5091
3 9.91319 7.16943 14.0142
3 10.4485 6.71028 15.487
2 6.8805 13.6767 -2.35858
3 7.23436 14.6091 -2.28532
3 15.8346 30.338 -6.78414
3 10.8681 25.6343 -17.5161
2 37.1168 15.3051 21.1829
3 38.088 15.1832 21.3873
3 36.6715 14.411 21.1349
2 4.981 0.247029 -1.33374
3 4.35915 1.02498 -1.42371
3 4.45805 43.699 -1.09854
3 25.7292 37.4226 -12.5734
2 12.4605 24.9348 14.6223
3 13.214 24.2948 14.4721
2 29.0385 11.8253 7.09488
3 29.494 10.9883 7.39787
3 28.0485 11.684 7.09271
2 21.5634 28.7828 3.92453
3 21.8733 27.9271 3.51008
3 22.1228 29.5391 3.58545
2 16.6418 6.99874 -1.81303
2 11.56 42.569 3.03578
3 10.8507 42.2624 3.67064
2 34.1639 37.947 0.502443
3 34.4023 37.2858 -0.208818
3 33.1689 38.0047 0.583868
2 21.2723 27.4176 7.19327
3 20.2841 27.4105 7.3466
3 21.5077 26.7316 6.50484
2 13.8042 16.7815 17.2643
3 13.8567 16.9883 16.2873
2 11.6126 18.6792 17.9447
3 40.8541 16.819 11.1294
2 30.542 21.5698 -1.80254
2 35.7352 43.6901 -7.48316
2 29.64 10.522 0.0995246
3 14.6752 5.26368 -7.93375
2 17.3452 21.5236 12.8044
3 17.5488 22.48 13.0138
3 12.5487 34.032 -21.2402
3 16.8497 6.61308 -15.6755
3 15.9264 6.65189 -14.3292
3 11.8684 32.5636 -21.4584
2 3.25247 12.4824 2.14385
3 2.64906 13.0179 1.55299
2 39.5604 1.50049 -21.6846
3 40.4025 1.8418 -22.1021
3 39.7782 1.0376 -20.8254
2 33.9716 26.6424 -10.4865
3 33.7882 27.1258 -11.3425
3 34.1029 25.6691 -10.6749
2 11.6885 33.522 -21.237
3 4.13645 5.10758 -10.3685
2 8.57046 36.1758 -18.7272
3 8.94155 35.7772 -19.5659
2 18.7872 39.7046 10.4468
3 18.2948 38.8372 10.3755
3 18.3035 40.4064 9.92384
2 19.0941 35.0679 2.14789
3 18.9938 34.1194 1.84758
3 18.4799 35.6522 1.61748
2 4.81775 5.83839 -10.4102
2 6.74529 13.6479 15.0071
3 6.41507 12.7068 14.9353
2 5.51339 35.8042 -12.2056
3 6.21039 36.5043 -12.0503
3 4.98997 35.6628 -11.3653
2 6.56256 9.0361 -21.6898
3 7.33889 9.15025 -22.3097
3 6.83923 8.47633 -20.9087
3 18.9932 40.3287 -0.606433
2 18.1785 40.7338 -1.02133
3 1.38868 36.4136 -1.89621
2 21.9671 32.9481 -18.5195
3 22.4956 33.2527 -17.7271
2 17.6017 36.2377 -13.8475
3 17.1861 35.7366 -13.0884
3 39.9888 13.2623 -8.0006
3 40.2863 11.6568 -7.97668
2 40.6781 12.5571 -8.16641
3 10.323 2.88841 -2.33179
3 10.3012 1.35385 -2.8897
2 10.8321 2.02886 -2.37733
3 9.65066 35.4439 7.09126
3 33.1168 19.2933 -17.0401
3 32.5062 19.103 -15.5376
3 9.15658 34.118 7.90645
3 17.3495 20.3912 16.5663
3 16.0427 20.2856 15.5928
2 23.5304 43.7844 -10.9047
3 23.5323 0.512778 -10.8774
2 15.4707 3.11849 12.3964
3 15.2079 2.96918 13.3496
3 14.8296 2.64145 11.7952
2 4.58524 24.3267 10.5142
3 4.25176 25.2183 10.8204
3 4.82704 24.3762 9.54513
2 24.1236 41.2978 21.3048
3 24.1486 41.1017 20.3245
2 21.4797 37.7913 10.6839
3 20.9617 38.5881 10.9948
3 22.2189 38.0892 10.0799
2 28.4038 6.28551 -10.7866
3 29.0013 5.57154 -11.1517
3 28.8109 6.66891 -9.95752
3 16.3982 38.8889 -13.3707
2 36.4579 2.57678 16.604
3 36.9796 2.26999 15.8079
3 35.7203 1.92748 16.7895
2 4.74963 37.8801 6.07991
3 4.82904 38.8096 6.44032
3 5.35653 37.2715 6.59099
3 37.4475 42.4843 6.81071
2 42.5587 41.2216 -15.8928
3 38.5419 30.8714 -17.0404
3 0.502321 41.4148 -15.076
2 19.8406 23.3343 -2.08897
3 20.2565 23.6134 -1.22342
3 20.4896 22.776 -2.6058
3 39.1793 30.5187 -15.5789
2 39.3816 30.6353 -16.5513
3 10.3333 19.5545 6.75009
3 10.7803 18.2619 7.64234
2 10.0032 18.7527 7.24828
3 19.0571 9.12465 3.37154
3 41.3093 37.5156 -18.2146
2 41.1287 38.2144 -18.9068
3 12.234 39.6145 4.11326
3 25.1726 6.13526 1.69149
3 5.93262 13.654 -2.04076
2 12.0387 32.6172 2.19827
3 12.2545 32.8519 1.25045
3 12.8822 32.5868 2.73446
2 5.63503 27.3926 2.3522
3 5.57898 28.3825 2.22176
3 6.40981 27.0314 1.83334
3 39.1438 28.2122 0.514811
2 25.2304 38.2887 -12.6064
3 24.813 38.4671 -11.7154
2 22.6452 24.8753 -8.94366
3 22.3 25.2334 -9.81117
3 23.5269 25.2987 -8.73551
2 22.1495 26.5604 18.7001
3 22.4024 27.5277 18.6834
3 22.3047 26.1597 17.7971
3 37.167 32.9458 21.6247
3 16.2051 7.87248 -2.02703
3 16.4778 6.3527 -2.55851
2 15.6775 38.0334 -7.07391
3 16.6351 37.7772 -6.94249
3 15.6295 38.9406 -7.49179
2 28.0268 32.6774 5.28505
3 27.362 32.5672 6.0239
3 28.4387 31.7914 5.07225
2 1.87541 31.2752 -3.72709
3 13.2375 15.9693 17.4031
2 19.4012 30.0327 5.38188
3 19.193 30.9254 4.98202
3 20.1553 29.6101 4.87924
2 12.0473 14.9722 18.5711
3 11.9427 13.9787 18.527
3 12.6037 15.2138 19.3661
3 39.5641 15.0543 -14.4511
3 6.49082 33.113 3.32757
3 35.7018 26.1054 -13.7922
3 33.097 12.7924 9.03921
3 27.1763 34.4364 2.40689
2 20.7299 43.1977 14.4202
3 13.3604 17.4082 -8.39078
3 10.1608 9.66607 -10.7187
3 29.7052 43.2108 -2.69225
3 23.3093 8.03041 -19.5819
3 34.272 18.4335 -6.38992
3 13.0006 32.31 12.7632
2 29.926 11.7945 3.80161
3 9.21111 6.07111 5.14695
3 25.8474 33.9061 11.2534
3 26.0358 28.3265 3.56207
3 9.85825 7.97884 21.4096
2 32.789 19.94 21.8202
2 32.6792 7.76279 21.9295
3 33.2865 8.24011 22.5646
3 15.2208 42.022 17.2409
3 38.1317 12.7721 7.99563
3 41.3883 39.645 7.44837
3 42.0263 40.1421 6.02974
2 41.2735 39.6398 6.45501
2 21.572 16.8217 9.22033
3 29.1372 23.5866 16.6327
3 22.1586 17.5396 8.84545
2 37.1653 3.487 -5.97091
3 37.57 4.12269 -6.62823
3 36.3847 3.92292 -5.52288
2 11.4106 22.8158 9.38346
3 11.5259 22.2597 10.2065
3 12.193 22.6785 8.77609
3 34.9074 25.5188 -0.947934
2 37.9548 36.5442 3.44905
3 27.6113 23.0393 16.4362
3 38.8205 36.1383 3.15634
2 35.2938 14.6753 6.56116
3 34.3181 14.7733 6.75748
3 35.8093 15.351 7.08797
2 30.5746 36.5342 12.2444
3 30.3141 36.3372 13.1896
3 31.3177 37.2033 12.2361
2 27.1026 43.85 21.4224
3 27.7527 44.0647 22.1514
2 28.5721 22.7712 16.5067
3 22.9514 16.3146 -8.70363
3 32.9984 31.3942 -13.2392
2 21.3997 40.0536 -9.87225
3 21.0772 40.9984 -9.81336
3 20.9671 39.5084 -9.15418
2 29.3599 39.7572 -0.0325741
3 29.5577 40.6317 0.4101
3 29.116 39.9155 -0.989363
3 28.8834 24.0494 -5.47334
3 18.4263 27.6582 13.1926
3 18.3399 26.0474 13.4468
3 20.8542 4.26414 19.9669
3 22.1613 5.06031 20.5362
2 40.9219 33.9565 -15.4648
3 40.6649 33.113 -14.9931
3 20.2296 10.6652 -9.07969
3 36.3001 31.4631 -5.53159
3 39.2914 20.1252 21.3039
2 20.8027 35.6064 15.6388
3 20.7375 35.9272 14.6939
3 5.12613 43.3911 -10.4928
3 27.8739 0.916015 8.5143
3 5.21835 0.248224 -9.31599
3 18.4364 13.2111 -4.1086
2 4.60892 43.8889 -9.79664
3 34.8075 0.855154 3.42381
3 33.4021 1.41969 2.81326
2 34.0872 1.54042 3.5316
2 7.91381 44.0416 -16.3859
3 8.86822 0.0416157 -16.5106
3 36.2907 29.6557 -14.1706
2 18.8296 9.20224 16.8273
3 18.9046 10.143 16.4966
3 17.9684 8.80509 16.51
2 36.4625 36.8013 -14.4802
3 35.5268 36.6642 -14.8054
3 36.7923 37.696 -14.7812
3 30.9591 24.2108 4.72473
2 35.7113 29.8142 -13.3711
3 20.7629 7.92926 6.58873
2 17.5265 34.7364 21.5268
3 16.6404 34.5445 21.9487
3 17.6509 34.1459 20.7294
2 20.1491 10.4748 9.23961
3 19.4976 10.1898 9.94265
3 20.169 9.79356 8.50781
3 27.9354 33.3257 -14.8007
2 37.1775 37.2219 11.3505
3 36.8787 36.377 11.7942
2 22.6699 41.4955 -12.1647
3 22.5646 40.7162 -11.547
3 22.9112 42.3094 -11.6362
2 41.0728 37.2043 19.6574
3 41.4646 36.4189 19.1782
3 40.0753 37.1324 19.655
3 24.8282 12.0855 2.02418
3 3.20045 16.5072 -22.0512
2 38.8288 25.8652 8.80165
3 39.7555 25.5689 9.03292
2 21.6047 38.3503 16.4094
3 21.6603 37.3532 16.3585
3 20.666 38.6416 16.2253
3 42.4316 15.8243 21.4459
3 9.25585 30.6447 -7.43562
3 0.493 1.9145 10.4856
2 32.998 25.9411 -8.00155
3 32.2543 26.6078 -8.05065
3 34.873 13.0608 3.79976
3 35.5733 13.5501 5.19145
3 20.6608 10.748 5.81126
2 35.7329 13.11 4.30775
3 4.9421 41.7099 3.3308
3 11.5321 1.0922 -16.9344
3 5.74478 40.7944 2.24262
2 5.07894 40.7803 2.98858
3 42.245 41.694 10.4903
2 0.244931 10.8694 -13.7791
3 0.725574 11.4785 -13.1483
2 12.1715 18.5009 -8.5626
3 11.6971 18.6059 -9.43665
3 11.9 19.2393 -7.94524
2 34.7654 2.83853 -18.1124
3 33.852 3.16137 -18.3604
3 35.4061 3.60614 -18.1289
3 22.773 26.1788 15.3876
3 19.2578 32.3545 -19.283
3 38.5931 12.3793 22.53
3 36.0039 43.4033 20.7813
3 37.4512 41.4846 2.93392
3 41.6469 38.0042 -19.7358
3 6.46877 39.8714 18.4452
3 18.7875 30.662 13.893
3 40.6738 18.302 11.789
3 37.2905 8.0368 -11.1812
3 3.95143 15.4815 9.54361
3 8.49193 27.5612 4.25733
3 40.0295 22.1324 -13.0539
3 2.22921 36.4889 8.13949
3 21.2681 10.134 10.4105
3 34.241 31.6151 -22.065
3 25.7695 3.0827 -0.19077
3 8.94569 35.625 19.5875
3 23.102 38.5597 17.2277
3 8.12845 25.6864 1.26047
3 8.53069 27.1131 0.57537
3 28.5712 16.0652 5.42598
3 28.8393 16.9216 6.79029
2 28.9787 16.0402 6.33887
3 17.9574 2.33211 5.2241
2 39.1277 12.8581 7.97283
3 31.6087 29.1123 2.82763
3 32.143 27.9356 3.82584
3 30.896 37.2303 -12.226
2 35.7994 25.4731 -0.498219
3 35.9512 24.5473 -0.152085
2 13.8179 23.098 2.31798
3 14.5573 22.4457 2.48474
3 13.0479 22.6264 1.88812
2 16.9171 6.22796 0.723686
3 16.6845 5.25544 0.733631
3 17.101 6.51709 -0.215771
3 26.9675 42.8602 21.3772
2 15.2653 2.93647 -17.5374
3 15.4646 3.53346 -18.3145
3 15.991 3.02406 -16.855
2 2.91351 30.9001 -1.25391
3 2.69065 30.9686 -2.22636
3 2.86005 31.8066 -0.83509
2 28.8662 23.0671 -5.66034
3 29.8007 22.7367 -5.79283
2 40.6823 25.7721 11.995
3 39.7232 26.0456 11.9225
3 41.074 25.6842 11.0791
2 33.9152 39.1707 16.7747
3 34.1734 38.3082 16.3394
3 33.1494 39.0133 17.3981
3 36.6093 6.01917 -20.8139
3 37.5699 4.70137 -20.729
2 37.5278 5.6912 -20.5931
2 19.8259 11.046 -8.24784
3 22.8181 29.0407 -7.16467
2 41.4886 17.3572 -14.6948
3 42.0241 17.8727 -14.0258
3 41.8132 17.5695 -15.6165
2 26.7956 4.21355 -13.2213
3 26.4681 5.13102 -12.9955
3 22.2099 28.6461 -8.62792
2 22.4513 28.2963 -7.72274
3 40.8834 20.2551 21.6433
2 40.1255 20.6453 21.1204
3 16.946 13.1117 -3.4488
3 7.50478 18.4767 -20.8856
3 36.5034 30.5715 -16.72
2 31.5275 24.8998 5.17436
3 31.3721 24.8675 6.16168
2 19.987 1.42352 -0.103508
3 20.8953 1.58288 -0.490299
3 19.5845 0.609512 -0.522312
2 39.9745 6.04501 -3.38314
3 40.3272 5.25833 -3.88982
3 38.9754 6.04828 -3.4259
3 23.1996 14.1645 -21.8264
2 28.2371 33.909 -15.5548
3 27.4472 34.3784 -15.9497
2 11.0793 8.90447 9.2836
3 11.083 8.26665 10.0538
3 11.5728 8.50005 8.51356
2 9.87313 38.921 -12.3481
3 9.80065 38.3832 -13.1881
3 10.5475 38.5012 -11.7407
3 24.5206 14.547 -20.9459
2 25.4867 11.9202 1.28999
3 26.1366 11.2167 1.57735
2 4.20274 41.7454 -16.8039
3 4.6356 41.1161 -17.4494
3 3.32919 42.0574 -17.1775
2 4.09269 21.4761 -8.79443
3 3.65624 21.7295 -9.65773
3 5.03623 21.194 -8.96814
2 24.1267 13.8819 -21.5804
3 0.549714 3.67722 21.0995
3 0.818524 2.92731 22.5249
2 0.726275 16.2522 21.3176
2 1.11716 3.66776 21.9228
2 12.9262 6.54394 18.6535
3 13.5581 7.21092 19.0481
2 26.6353 28.5532 -21.4392
3 25.7344 28.1649 -21.6333
3 26.5267 29.4625 -21.0374
3 10.254 29.4993 -8.03412
2 9.35214 29.67 -7.63723
3 10.9183 43.9205 -16.4785
3 0.951647 42.1245 -17.0866
3 1.59643 13.9651 -8.40122
3 2.53643 12.6625 -8.10763
3 26.549 32.7463 -6.71866
2 23.4579 26.8783 15.1832
3 23.459 27.0667 14.2011
2 24.0157 10.6549 21.3183
3 23.2934 11.2338 21.6966
3 23.9231 10.6137 20.3235
2 27.4867 32.6361 -6.38929
3 27.5642 31.7756 -5.88579
3 31.0209 22.4412 -1.90956
3 36.6179 43.9106 -7.89817
3 4.82019 6.3415 -9.54596
3 38.6243 32.4177 21.111
3 38.247 7.59213 -6.22718
3 36.8294 16.7431 -10.9527
3 11.255 5.72264 3.89224
3 39.8152 20.0229 2.47371
3 36.5048 15.8995 -17.6267
3 4.20453 5.3745 2.16497
3 18.3403 40.884 6.63919
3 40.3571 32.6481 -21.5831
3 21.8348 25.4863 -21.8962
3 12.2269 1.2345 20.9037
3 34.4772 33.5275 -4.40793
2 25.5364 17.7537 -17.6031
3 17.9341 31.2995 9.5615
3 27.901 22.1644 -4.02431
3 12.8913 8.26221 -3.83587
3 19.0951 4.95466 -9.33556
3 0.182399 41.8065 -0.118157
2 40.7757 31.8781 12.7636
3 12.1528 26.1037 -7.05085
3 25.36 41.4568 18.3376
3 7.21982 2.48948 -5.20906
3 3.3662 25.279 14.0414
3 23.7431 0.762208 12.153
3 24.861 18.939 2.67642
3 13.2458 31.7891 -14.3555
3 6.03504 12.298 -17.4491
3 7.34625 12.4293 -16.4846
2 6.35044 12.3393 -16.501
3 33.9778 23.783 1.66179
2 34.9195 23.7131 1.99065
2 28.5881 3.03269 15.7841
2 9.28781 28.0408 3.88783
3 9.96726 28.1654 4.6109
2 40.927 22.573 -13.0335
3 40.8169 23.5594 -13.1558
2 11.9043 5.58812 3.14369
2 7.06572 27.8926 16.9753
3 32.9775 28.8103 0.0999547
3 19.4418 5.51488 -17.9874
3 32.8142 29.0892 -1.50072
2 2.72962 36.7518 8.96441
2 33.2729 28.5271 -0.812493
3 2.69888 37.7457 9.07042
2 2.38836 38.1933 -21.2264
3 1.40342 38.2078 -21.3987
3 2.64839 39.0092 -20.7099
3 36.4049 34.6535 8.48516
3 35.4052 33.5168 7.87266
2 35.6024 34.4965 7.9095
3 26.0543 25.3952 -17.8401
3 21.6906 15.1034 -4.26198
2 26.9284 25.8292 -18.0582
2 35.0679 32.046 -21.7037
3 34.9796 33.0403 -21.765
2 24.957 3.65933 -0.105238
3 24.5098 3.73944 -0.996103
2 0.0563914 11.3867 21.5454
2 24.0074 38.7043 17.6267
3 33.5901 35.8775 -16.2796
2 34.1602 12.6653 -14.2616
3 33.1632 12.7301 -14.2201
3 26.0856 7.71915 6.84999
3 3.97721 6.83406 5.3048
3 4.9604 6.12307 4.21188
2 4.71882 6.17478 5.18089
3 35.1721 2.51829 22.1538
3 12.9297 39.3353 -2.8944
3 35.0706 1.59877 20.8081
2 35.0472 2.53387 21.1617
3 2.9374 13.9447 -17.5954
3 4.00709 28.8609 -9.12575
3 9.46201 39.3636 8.84664
3 32.589 31.5123 19.8415
3 32.0532 30.0409 19.3786
2 17.5336 29.8074 1.59859
3 16.9457 29.8609 2.40569
3 18.245 29.121 1.74931
2 1.39333 23.607 17.363
3 1.80858 24.4921 17.1531
3 0.856534 23.6815 18.2034
3 25.846 43.4055 -8.47748
2 34.5089 1.49573 -15.7319
3 34.0527 1.99027 -16.4717
2 31.1925 15.1558 -17.1397
3 30.7024 14.3529 -16.8006
3 30.6916 15.9835 -16.887
2 25.411 16.5228 -20.5964
3 25.7657 17.1927 -21.2487
3 25.7729 16.7207 -19.6854
3 11.0863 4.28713 1.89966
3 21.6692 44.1067 1.6363
3 0.780382 28.4848 18.02
2 22.9459 5.27184 6.64425
3 23.1999 4.3304 6.4225
3 23.4448 5.56872 7.45846
2 19.1842 13.209 2.97684
3 19.4184 13.9857 2.39204
3 18.7978 12.4754 2.41782
3 26.27 1.98919 -21.0304
3 26.1624 18.4744 15.2938
3 26.0075 18.2635 16.9057
2 18.2153 4.07335 16.1935
3 17.2279 3.97368 16.3169
2 5.68314 41.5231 12.2145
3 4.87173 41.9065 12.6557
3 3.85732 42.147 -2.8606
3 2.69149 43.0231 -3.59545
3 21.6622 4.53916 -18.6012
2 3.06313 42.1037 -3.46672
3 16.7095 43.6273 -0.388754
3 17.5757 42.6909 -1.40831
2 17.3491 43.632 -1.15747
3 22.0081 13.5848 -6.55306
2 25.6483 33.6057 -2.0307
3 23.3464 14.3954 -6.0856
3 25.7321 37.6863 -20.8471
3 12.7925 32.8677 8.49102
2 12.3853 31.9656 8.63384
3 23.3255 30.3169 2.06128
2 28.4071 40.1156 -2.46612
3 27.8986 40.9765 -2.48336
2 31.3426 38.6868 21.5015
3 31.7558 38.6203 20.5933
3 31.381 39.6352 21.8165
2 13.7973 8.55218 10.1889
3 13.0887 9.07343 9.71336
3 14.6761 8.69067 9.73209
3 41.0314 34.0774 18.489
3 17.1279 30.7002 0.189017
2 17.552 18.9281 -21.411
3 17.7847 18.7673 -20.4518
3 16.983 18.1773 -21.7463
2 14.674 2.17181 -20.8941
3 14.1896 3.04546 -20.8474
3 14.1603 1.47853 -20.3886
3 2.25652 44.099 15.77
3 15.8462 10.7381 -13.4636
3 17.4563 41.9082 4.67459
2 38.2188 17.1227 -20.2946
3 38.2426 18.121 -20.3469
3 37.4567 16.8375 -19.7133
2 24.5876 11.316 -20.6503
3 24.4515 12.2376 -21.0137
3 25.4684 10.9609 -20.9635
3 11.742 26.9192 21.8512
2 15.3624 19.0656 20.4132
3 14.6511 18.5183 20.8542
2 32.522 26.6214 9.61031
3 33.4768 26.9185 9.60552
3 31.9514 27.3262 9.18875
2 42.0277 37.2698 16.3072
3 41.8453 36.2916 16.4068
4 5.70151 18.3723 15.3717
5 15.22 4.73188 -13.2719
3 41.4586 27.0226 17.9559
3 39.8803 27.1166 18.3643
2 40.646 26.4942 18.2018
3 15.794 33.3095 -7.86032
3 16.4762 32.3825 -9.01873
2 15.8536 33.1456 -8.84499
2 13.6522 32.5912 -13.9178
3 40.8182 9.39066 -21.506
3 5.9379 2.31227 -16.5871
3 6.86569 1.1094 -15.988
2 6.02288 1.63194 -15.8591
3 19.4885 18.724 1.10207
3 19.0128 17.9544 -0.257376
2 19.5204 18.7372 0.102665
3 12.2936 6.46995 2.87768
3 7.83136 27.777 16.3425
2 40.6288 20.1106 1.89896
3 41.0649 19.2162 1.79982
3 6.7232 28.8303 16.9163
2 36.0616 16.4168 -18.3589
3 35.1842 15.9924 -18.5828
2 21.6416 10.0092 11.3297
3 21.2458 10.6904 11.9456
2 3.21313 5.41615 2.04089
3 3.00542 5.81828 1.14918
2 18.6033 40.0261 7.08073
3 19.5666 40.0694 7.34567
3 4.64613 20.9495 8.81354
3 6.19372 20.4361 8.72393
2 8.65625 34.7069 19.8581
3 8.10582 34.3022 19.1278
2 5.51991 21.0687 8.34206
2 18.7729 27.4207 -0.540314
3 18.9559 26.4562 -0.730593
3 19.212 27.6799 0.31992
2 9.32187 31.7268 -11.575
3 9.80975 30.9795 -12.0262
3 8.34165 31.529 -11.5685
3 19.2472 13.1528 6.97417
3 19.5233 12.225 8.28934
2 19.2537 13.1349 7.97399
3 33.288 35.6358 -14.6931
2 26.9634 7.33467 6.56438
3 27.6146 7.39255 7.32105
2 25.9719 14.602 16.7162
3 26.0292 14.4443 17.7021
3 26.5793 15.355 16.4633
2 41.0198 32.2213 -20.9677
3 40.674 32.2555 -20.0301
2 33.821 36.1678 -15.3509
3 20.63 39.5856 -4.36825
3 9.28978 40.4718 10.0336
3 21.7615 40.5638 -3.71283
3 40.8899 4.35839 2.37541
3 42.1742 4.99096 3.16089
2 30.8319 25.1221 11.4103
2 21.5979 39.8366 -4.37955
3 30.1293 25.8324 11.452
3 35.628 29.8154 -9.97602
2 25.1546 42.7458 -8.77216
3 24.4966 42.6002 -8.03341
2 28.3335 24.0749 7.01635
3 27.7502 24.4283 7.7477
3 29.2501 23.9002 7.37605
2 24.9274 16.1391 13.0085
3 25.6393 16.764 12.688
3 24.1468 16.1751 12.3845
3 35.4593 30.2844 -11.5311
2 10.9299 3.3854 1.49666
3 10.0387 3.37308 1.04308
2 7.63004 12.7723 6.75258
3 7.21573 13.6418 7.02149
3 7.67644 12.7195 5.75505
2 19.5351 15.8463 7.62116
3 18.7711 16.4493 7.39187
3 19.1851 14.9395 7.85641
2 35.6029 30.6015 -10.5936
2 25.876 1.15284 -21.4116
3 25.8409 1.22513 -22.4084
2 12.2104 16.5184 -15.962
3 12.2282 16.5237 -16.9619
3 12.4988 17.4122 -15.6188
2 39.2573 42.0535 0.0537984
3 38.6571 42.4441 0.751739
3 39.4508 41.0982 0.277324
3 0.223494 27.9066 16.598
2 42.5649 28.1918 17.5209
2 22.26 3.84206 -18.997
2 2.64008 40.4711 -19.5628
3 2.62876 41.243 -20.1984
2 20.4775 40.6804 -15.4421
3 19.9495 39.833 -15.498
3 8.77974 19.397 21.1367
3 31.4298 38.5984 1.92719
3 31.878 23.9399 8.16432
2 31.2824 24.7027 7.91264
3 9.32137 4.39321 4.63299
3 41.3624 16.0396 7.42896
3 41.244 14.8843 6.28099
3 20.5475 22.4831 18.4939
3 19.7958 6.22182 -13.9515
2 21.5178 22.3464 18.6936
2 41.7499 34.7579 18.3454
3 42.4391 34.3885 17.722
2 14.436 6.77006 -19.7597
3 14.272 7.15645 -18.852
3 14.9522 7.42443 -20.3122
2 20.6255 17.1554 -10.6113
3 20.984 17.1855 -9.67828
3 19.6413 17.3315 -10.5961
3 29.1555 32.4363 11.8025
2 29.4377 32.9677 12.6013
2 1.73463 0.354705 16.4407
3 1.26875 44.0004 17.0666
2 38.8833 16.1232 9.22586
3 38.8211 16.8811 9.87525
3 39.4466 15.395 9.6164
2 3.13213 8.02314 7.3368
3 2.1896 8.34177 7.43738
3 3.58189 8.5379 6.60691
3 15.7438 10.2598 -15.0216
2 11.8021 25.9274 21.7378
3 10.9136 25.5705 21.4492
2 4.69736 4.73074 -5.87462
3 4.32561 4.08373 -6.54034
3 4.98946 4.23594 -5.05617
2 15.4252 43.6203 -14.9135
3 15.9104 42.9911 -14.3064
3 15.1568 0.165374 -14.4019
2 15.2403 10.6586 -14.2552
3 19.9234 27.4123 15.3068
2 38.9844 40.0925 18.5341
3 16.8634 9.63272 -9.48104
2 24.6566 0.983154 7.39848
3 13.9065 12.1067 -2.12503
3 35.5485 19.7439 11.2336
3 29.5486 20.5268 -20.9026
2 2.29995 15.7771 -5.68866
3 2.51313 37.4985 6.05966
3 3.07496 8.05489 -0.0356289
3 16.2576 23.7582 -4.19087
3 12.7809 2.44166 -5.8603
3 35.934 23.9977 -7.65875
3 10.0016 23.5914 -9.72646
2 28.9467 38.8929 3.12156
3 28.5585 38.024 2.81424
2 3.10087 17.3137 9.11009
3 40.8425 18.8228 18.3764
3 41.1592 17.296 18.8613
2 5.02151 11.648 -12.2985
2 41.3797 18.2607 19.0052
3 4.66761 12.0053 -13.1629
2 41.9408 1.30346 -16.7823
3 41.9192 1.54373 -17.7528
3 41.4341 0.453471 -16.638
2 6.9936 21.4374 -5.07216
3 6.8756 21.1515 -4.1212
3 6.18062 21.9355 -5.37376
3 11.7292 0.776999 -21.4
3 3.97002 31.1528 8.83404
3 14.0521 41.1767 -4.36843
2 4.09175 31.3708 7.8657
2 2.28867 6.54144 -6.5859
3 2.21644 6.10358 -7.48204
3 3.0523 6.14067 -6.07968
2 18.125 7.10675 7.52293
3 18.8317 7.81076 7.59335
3 18.295 6.39453 8.20399
3 30.7334 2.18249 -6.32602
2 0.993058 4.73266 -18.1252
3 1.72116 4.31105 -17.5847
3 13.6479 1.85895 17.4807
2 6.01915 11.908 -19.1542
3 5.65572 10.9778 -19.2044
3 6.61854 12.0744 -19.9372
2 9.6657 13.322 8.5995
3 8.86468 13.3837 8.00405
3 9.37119 13.1287 9.5354
3 8.77131 8.99015 -5.69771
2 5.55585 35 -7.84974
3 6.54948 35.1108 -7.82905
2 13.2355 2.51958 18.1079
2 8.89849 30.3022 21.3292
3 7.94662 30.0118 21.4273
2 13.1469 12.4845 15.6341
3 14.0978 12.7237 15.4375
2 1.60738 28.0575 2.82382
3 1.11929 28.8884 2.55663
2 27.2545 43.1833 -11.5212
3 36.1494 28.5451 13.0427
3 2.88503 23.5756 1.39942
3 1.90392 22.5757 2.23869
3 23.9533 36.3744 7.78916
2 35.4231 28.2651 13.6705
3 12.0768 30.0949 20.5508
3 11.2584 29.9446 21.9559
2 12.1517 29.8478 21.5169
3 23.3798 8.64895 16.9029
3 18.8133 43.2564 6.24626
2 8.51985 4.49369 -7.74299
3 8.62313 5.39228 -8.16947
3 9.20136 3.86593 -8.11912
2 36.862 19.8146 -14.2799
3 36.7223 19.2843 -15.1161
3 36.3306 19.4098 -13.5357
2 5.62837 37.4826 0.897328
3 5.45275 37.8274 1.81941
3 19.8336 42.1947 5.54015
3 16.5088 32.0852 -13.8754
2 18.89 42.3489 5.83324
2 8.86314 20.0761 17.6609
3 8.65891 21.0528 17.5952
3 9.85302 19.9455 17.7164
2 30.1358 43.6523 -11.1216
3 30.4695 43.1875 -11.9417
3 30.217 43.04 -10.3351
2 19.554 44.2577 9.34324
2 32.7262 5.25695 -2.13002
3 13.368 25.0475 5.26591
2 12.851 24.7197 6.05662
2 34.7896 21.4747 -21.5562
3 35.1615 22.3686 -21.3058
3 35.4199 20.7568 -21.2609
2 32.9309 10.5206 17.7085
3 33.8616 10.1605 17.6442
3 32.8682 11.1449 18.4872
3 16.657 31.9281 20.6306
2 1.57484 31.3502 20.7561
2 38.4755 17.3769 17.441
3 38.9701 18.2361 17.3101
2 41.7362 3.16015 18.5882
3 40.9398 3.74069 18.7575
3 41.5447 2.54659 17.8222
3 8.72928 7.93644 -19.2383
3 4.28905 21.6643 -17.4983
3 3.15036 22.7823 -17.8452
3 25.0075 4.32584 -8.22732
3 41.2542 16.2378 -0.0408087
3 41.0318 14.9121 0.886404
2 27.3394 10.8889 -7.66039
3 23.9652 4.5101 -6.98383