ITEM: TIMESTEP
0
ITEM: NUMBER OF ATOMS
9393
ITEM: BOX BOUNDS pp pp ff
0.0000000000000000e+00 4.2600000000000001e+01
0.0000000000000000e+00 4.4271200000000000e+01
-2.5100000000000001e+01 2.5100000000000001e+01
ITEM: ATOMS id type x y z q
1 1 0 8.17 -25 0
2 1 2.84 8.17 -25 0
3 1 4.26 8.17 -25 0
4 1 7.1 8.17 -25 0
5 1 0.71 6.94 -25 0
6 1 2.13 6.94 -25 0
7 1 4.97 6.94 -25 0
8 1 6.39 6.94 -25 0
9 1 0 5.71 -25 0
10 1 2.84 5.71 -25 0
11 1 4.26 5.71 -25 0
12 1 7.1 5.71 -25 0
13 1 0.71 4.48 -25 0
14 1 2.13 4.48 -25 0
15 1 4.97 4.48 -25 0
16 1 6.39 4.48 -25 0
17 1 0 3.25 -25 0
18 1 2.84 3.25 -25 0
19 1 4.26 3.25 -25 0
20 1 7.1 3.25 -25 0
21 1 0.71 2.02 -25 0
22 1 2.13 2.02 -25 0
23 1 4.97 2.02 -25 0
24 1 6.39 2.02 -25 0
25 1 0 0.79 -25 0
26 1 2.84 0.79 -25 0
27 1 4.26 0.79 -25 0
28 1 7.1 0.79 -25 0
29 3 3.99814 2.19355 -21.0151 0.4236
30 3 7.7218 3.05565 -21.9951 0.4236
31 3 6.16114 3.11847 -21.5186 0.4236
34 2 4.56469 4.11084 -21.2301 -0.8472
35 3 4.90944 4.13827 -20.2918 0.4236
36 3 3.83468 4.78589 -21.3368 0.4236
39 3 8.40326 5.16859 -20.4266 0.4236
42 2 2.95772 6.36715 -20.9087 -0.8472
43 3 3.52035 7.0763 -21.3336 0.4236
44 3 2.0012 6.6588 -20.9041 0.4236
47 3 6.65805 8.02145 -21.5054 0.4236
48 3 5.03733 2.67129 -18.2955 0.4236
49 3 4.00806 1.59421 -18.9642 0.4236
53 2 5.4179 4.30429 -18.6903 -0.8472
54 3 6.41359 4.36152 -18.7632 0.4236
55 3 5.05844 5.17189 -18.3467 0.4236
56 2 8.17596 4.12089 -18.9663 -0.8472
58 3 7.9915 3.90486 -18.0075 0.4236
60 2 3.96888 6.81552 -18.2542 -0.8472
61 3 4.77537 7.36626 -18.4693 0.4236
62 3 3.51068 6.54999 -19.1025 0.4236
63 2 6.09954 8.44886 -18.7069 -0.8472
65 3 6.61159 8.75214 -19.5105 0.4236
297 3 0.32152 2.46763 -21.0141 0.4236
1349 2 0.658432 1.54004 -20.8527 -0.8472
1350 2 3.69794 1.32601 -20.6185 -0.8472
1351 3 2.72047 1.20197 -20.7893 0.4236
1352 2 7.00209 2.57806 -21.4912 -0.8472
1374 3 0.192021 1.64879 -18.5351 0.4236
1375 2 4.55509 1.80668 -18.1545 -0.8472
1376 2 8.3647 0.824619 -19.8858 -0.8472
1377 3 7.74702 1.29632 -20.5151 0.4236
1400 3 4.5563 0.516859 -16.8316 0.4236
1401 3 7.78146 0.799817 -17.5837 0.4236
1737 3 3.49094 7.20807 -16.8034 0.4236
40 2 0.026217 6.53569 -20.6916 -0.8472
41 3 0.0351819 6.39206 -19.702 0.4236
1729 3 3.37947 2.44503 -17.0205 0.4236
37 2 8.53912 5.85827 -21.1379 -0.8472
57 3 8.86578 3.49097 -19.3231 0.4236
38 3 9.17095 6.55893 -20.8064 0.4236
50 3 9.15648 1.40574 -19.6977 0.4236
67 1 8.52 8.17 -25 0
68 1 11.36 8.17 -25 0
69 1 12.78 8.17 -25 0
70 1 15.62 8.17 -25 0
71 1 9.23 6.94 -25 0
72 1 10.65 6.94 -25 0
73 1 13.49 6.94 -25 0
74 1 14.91 6.94 -25 0
75 1 8.52 5.71 -25 0
76 1 11.36 5.71 -25 0
77 1 12.78 5.71 -25 0
78 1 15.62 5.71 -25 0
79 1 9.23 4.48 -25 0
80 1 10.65 4.48 -25 0
81 1 13.49 4.48 -25 0
82 1 14.91 4.48 -25 0
83 1 8.52 3.25 -25 0
84 1 11.36 3.25 -25 0
85 1 12.78 3.25 -25 0
86 1 15.62 3.25 -25 0
87 1 9.23 2.02 -25 0
88 1 10.65 2.02 -25 0
89 1 13.49 2.02 -25 0
90 1 14.91 2.02 -25 0
91 1 8.52 0.79 -25 0
92 1 11.36 0.79 -25 0
93 1 12.78 0.79 -25 0
94 1 15.62 0.79 -25 0
96 3 14.9701 1.99698 -20.9353 0.4236
97 2 12.4992 6.83311 -21.1264 -0.8472
98 3 13.3649 7.26272 -21.3834 0.4236
99 3 11.7767 7.1436 -21.744 0.4236
100 2 14.4582 3.23715 -19.5702 -0.8472
101 3 15.2563 3.78402 -19.3174 0.4236
102 3 13.631 3.66847 -19.21 0.4236
103 2 9.82646 8.2831 -20.5051 -0.8472
104 3 10.2476 7.9248 -19.6719 0.4236
106 2 14.7788 8.52707 -21.1936 -0.8472
107 3 15.7601 8.46791 -21.0104 0.4236
109 3 10.9668 3.35331 -19.5648 0.4236
110 3 10.839 1.98853 -20.4523 0.4236
112 3 14.9928 0.321963 -19.536 0.4236
113 2 11.8358 4.79852 -19.154 -0.8472
114 3 11.9489 5.36558 -19.9698 0.4236
115 3 11.3388 5.31412 -18.456 0.4236
117 3 13.544 6.20433 -16.8466 0.4236
119 2 11.3097 8.67885 -17.7311 -0.8472
120 3 10.8495 8.27325 -16.9413 0.4236
122 2 13.6611 7.28489 -18.2503 -0.8472
123 3 12.8624 7.87356 -18.1258 0.4236
124 3 13.6343 6.87516 -19.1621 0.4236
191 3 15.2607 7.87671 -17.8038 0.4236
1437 2 14.892 1.31489 -21.6624 -0.8472
1438 3 15.0415 1.75362 -22.5485 0.4236
1457 2 10.3781 2.57619 -19.7873 -0.8472
2947 3 15.9933 0.579061 -16.9315 0.4236
170 3 16.9882 8.59494 -19.0199 0.4236
181 2 16.8258 4.8356 -18.8865 -0.8472
182 3 16.672 5.67007 -19.4156 0.4236
189 2 16.1588 8.18584 -17.4909 -0.8472
190 3 16.6615 7.41255 -17.1045 0.4236
95 3 12.7556 1.38144 -21.6261 0.4236
1435 2 11.8982 0.994104 -21.2871 -0.8472
1436 3 12.0206 0.0174887 -21.1103 0.4236
1785 3 11.3733 0.493142 -16.9079 0.4236
183 3 17.045 5.07616 -17.9409 0.4236
129 1 17.04 8.17 -25 0
130 1 19.88 8.17 -25 0
131 1 21.3 8.17 -25 0
132 1 24.14 8.17 -25 0
133 1 17.75 6.94 -25 0
134 1 19.17 6.94 -25 0
135 1 22.01 6.94 -25 0
136 1 23.43 6.94 -25 0
137 1 17.04 5.71 -25 0
138 1 19.88 5.71 -25 0
139 1 21.3 5.71 -25 0
140 1 24.14 5.71 -25 0
141 1 17.75 4.48 -25 0
142 1 19.17 4.48 -25 0
143 1 22.01 4.48 -25 0
144 1 23.43 4.48 -25 0
145 1 17.04 3.25 -25 0
146 1 19.88 3.25 -25 0
147 1 21.3 3.25 -25 0
148 1 24.14 3.25 -25 0
149 1 17.75 2.02 -25 0
150 1 19.17 2.02 -25 0
151 1 22.01 2.02 -25 0
152 1 23.43 2.02 -25 0
153 1 17.04 0.79 -25 0
154 1 19.88 0.79 -25 0
155 1 21.3 0.79 -25 0
156 1 24.14 0.79 -25 0
157 3 19.8975 1.19841 -21.45 0.4236
158 3 22.1274 0.424196 -20.6883 0.4236
161 2 20.3507 4.04262 -20.92 -0.8472
162 3 19.5891 3.40187 -21.0172 0.4236
163 3 20.2922 4.7406 -21.6337 0.4236
164 2 22.7969 2.74341 -20.2538 -0.8472
165 3 22.0256 3.30952 -20.5448 0.4236
166 3 23.0335 2.96337 -19.3075 0.4236
167 2 25.5515 2.93765 -20.6641 -0.8472
168 3 24.6067 2.60995 -20.6728 0.4236
177 2 17.9459 2.11818 -18.7422 -0.8472
178 3 17.641 3.06321 -18.8601 0.4236
179 3 21.2009 2.24006 -18.2366 0.4236
184 2 22.3204 3.50731 -17.6813 -0.8472
185 3 21.5508 3.86469 -17.1522 0.4236
186 3 23.1782 3.833 -17.2836 0.4236
192 2 21.4334 7.38771 -17.8992 -0.8472
193 3 20.7635 6.69329 -17.6366 0.4236
194 3 20.9583 8.18676 -18.2676 0.4236
195 2 24.2471 6.95956 -19.1048 -0.8472
196 3 23.264 6.85278 -18.9561 0.4236
197 3 20.6746 0.0802383 -16.7983 0.4236
253 3 24.9481 5.39008 -18.4066 0.4236
260 3 24.4639 7.92937 -19.2165 0.4236
1507 2 19.1134 1.68035 -21.8409 -0.8472
1508 3 18.5154 1.02488 -22.3022 0.4236
1509 2 21.2208 0.0285596 -20.5415 -0.8472
1510 3 20.8929 0.275778 -19.6298 0.4236
1537 3 17.3882 1.67293 -18.0417 0.4236
1538 2 20.5904 1.44933 -18.1906 -0.8472
1539 3 19.6403 1.7596 -18.2207 0.4236
176 3 25.1193 6.13639 -20.9163 0.4236
187 2 25.5252 4.57511 -18.459 -0.8472
1557 3 18.3022 0.585454 -19.4315 0.4236
188 3 25.5832 4.2682 -19.4089 0.4236
234 3 26.1597 2.19407 -20.3863 0.4236
159 2 26.9507 0.677027 -19.8312 -0.8472
160 3 27.893 0.912112 -20.0696 0.4236
175 2 25.8998 5.694 -21.358 -0.8472
180 3 26.1752 1.34156 -18.3985 0.4236
202 1 25.56 8.17 -25 0
203 1 28.4 8.17 -25 0
204 1 29.82 8.17 -25 0
205 1 32.66 8.17 -25 0
206 1 26.27 6.94 -25 0
207 1 27.69 6.94 -25 0
208 1 30.53 6.94 -25 0
209 1 31.95 6.94 -25 0
210 1 25.56 5.71 -25 0
211 1 28.4 5.71 -25 0
212 1 29.82 5.71 -25 0
213 1 32.66 5.71 -25 0
214 1 26.27 4.48 -25 0
215 1 27.69 4.48 -25 0
216 1 30.53 4.48 -25 0
217 1 31.95 4.48 -25 0
218 1 25.56 3.25 -25 0
219 1 28.4 3.25 -25 0
220 1 29.82 3.25 -25 0
221 1 32.66 3.25 -25 0
222 1 26.27 2.02 -25 0
223 1 27.69 2.02 -25 0
224 1 30.53 2.02 -25 0
225 1 31.95 2.02 -25 0
226 1 25.56 0.79 -25 0
227 1 28.4 0.79 -25 0
228 1 29.82 0.79 -25 0
229 1 32.66 0.79 -25 0
230 2 29.5786 1.16486 -20.3901 -0.8472
231 3 29.3454 2.04054 -20.8129 0.4236
235 2 29.045 3.68134 -20.9264 -0.8472
236 3 29.2318 4.0799 -20.0285 0.4236
237 3 28.6926 4.38925 -21.5385 0.4236
241 3 25.815 4.70162 -21.2686 0.4236
242 2 28.1029 7.58161 -21.5628 -0.8472
243 3 28.5045 7.55367 -20.6474 0.4236
244 3 27.2992 6.98725 -21.5925 0.4236
247 3 30.889 8.40127 -21.9079 0.4236
248 3 25.7799 2.87136 -17.986 0.4236
249 3 30.5202 1.56995 -17.334 0.4236
250 3 31.472 2.58522 -18.1883 0.4236
252 3 32.255 0.576755 -18.8432 0.4236
254 2 28.5062 4.9628 -18.4754 -0.8472
255 3 28.9573 4.65679 -17.6371 0.4236
256 3 27.5168 4.85234 -18.3809 0.4236
257 2 33.3555 5.30539 -20.1087 -0.8472
258 3 32.4298 5.02448 -19.8555 0.4236
259 3 33.5034 6.25463 -19.8311 0.4236
261 2 28.7916 7.56319 -18.9889 -0.8472
262 3 28.5973 6.58535 -18.911 0.4236
263 3 29.4662 7.82499 -18.2987 0.4236
264 2 33.5392 7.87138 -19.6225 -0.8472
266 3 32.9608 8.38902 -20.2529 0.4236
268 3 32.8643 7.19367 -18.0127 0.4236
1540 2 25.7099 1.90996 -17.72 -0.8472
1594 3 30.1054 1.32738 -19.5558 0.4236
1616 2 31.0505 1.6785 -18.1748 -0.8472
1902 2 31.6031 4.34265 -17.5643 -0.8472
1903 3 31.9496 5.26944 -17.4196 0.4236
1904 3 30.8337 4.17451 -16.948 0.4236
1905 2 30.0101 8.26806 -16.7523 -0.8472
1908 2 32.8932 6.76613 -17.1092 -0.8472
1909 3 33.7912 6.35013 -16.9659 0.4236
66 3 42.3309 3.36317 -16.8217 0.4236
1668 3 42.5114 0.887386 -20.9789 0.4236
1694 2 42.4896 0.790287 -18.121 -0.8472
232 2 34.8896 1.09526 -20.8181 -0.8472
233 3 34.2454 1.107 -20.0533 0.4236
238 2 34.8869 3.73578 -21.5998 -0.8472
239 3 34.2105 4.41559 -21.3164 0.4236
265 3 34.3932 8.3686 -19.4691 0.4236
1595 3 34.8745 1.98193 -21.2802 0.4236
1696 3 36.3378 0.011378 -19.5148 0.4236
32 2 42.0592 3.93092 -21.144 -0.8472
33 3 41.7366 3.86114 -20.2 0.4236
51 2 41.0901 4.08714 -18.3657 -0.8472
52 3 41.2453 5.05282 -18.1575 0.4236
59 3 42.4195 6.648 -17.1058 0.4236
240 3 35.7411 4.19616 -21.8414 0.4236
269 1 34.08 8.17 -25 0
270 1 36.92 8.17 -25 0
271 1 38.34 8.17 -25 0
272 1 41.18 8.17 -25 0
273 1 34.79 6.94 -25 0
274 1 36.21 6.94 -25 0
275 1 39.05 6.94 -25 0
276 1 40.47 6.94 -25 0
277 1 34.08 5.71 -25 0
278 1 36.92 5.71 -25 0
279 1 38.34 5.71 -25 0
280 1 41.18 5.71 -25 0
281 1 34.79 4.48 -25 0
282 1 36.21 4.48 -25 0
283 1 39.05 4.48 -25 0
284 1 40.47 4.48 -25 0
285 1 34.08 3.25 -25 0
286 1 36.92 3.25 -25 0
287 1 38.34 3.25 -25 0
288 1 41.18 3.25 -25 0
289 1 34.79 2.02 -25 0
290 1 36.21 2.02 -25 0
291 1 39.05 2.02 -25 0
292 1 40.47 2.02 -25 0
293 1 34.08 0.79 -25 0
294 1 36.92 0.79 -25 0
295 1 38.34 0.79 -25 0
296 1 41.18 0.79 -25 0
298 3 36.5635 0.412414 -21.7823 0.4236
300 3 38.95 0.0649231 -21.7549 0.4236
301 3 42.2353 4.88993 -21.366 0.4236
302 2 37.2168 5.3664 -21.2777 -0.8472
303 3 36.9332 5.2436 -20.3266 0.4236
304 3 37.8987 4.67425 -21.5142 0.4236
305 2 39.2355 3.102 -21.6587 -0.8472
306 3 39.9769 3.68197 -21.9961 0.4236
307 3 39.4587 2.14237 -21.8298 0.4236
308 3 41.9036 7.18542 -20.9276 0.4236
309 2 37.814 7.96235 -21.3193 -0.8472
310 3 37.1301 8.40633 -20.7403 0.4236
311 3 37.5028 7.0422 -21.557 0.4236
312 2 40.3844 8.37376 -20.5419 -0.8472
313 3 40.3644 8.55818 -19.5592 0.4236
314 3 39.4495 8.35142 -20.8959 0.4236
315 3 41.4915 0.738017 -18.1534 0.4236
316 3 37.7861 0.205824 -18.7858 0.4236
317 3 39.6936 0.703483 -19.8701 0.4236
318 3 40.131 3.8598 -18.1971 0.4236
319 2 36.1119 4.53157 -18.8939 -0.8472
320 3 35.2935 4.32412 -19.4298 0.4236
321 3 35.8461 4.97159 -18.0362 0.4236
322 2 38.4174 3.01391 -17.8512 -0.8472
323 3 37.8828 2.8358 -17.025 0.4236
324 3 37.7989 3.19214 -18.6164 0.4236
325 2 41.8815 6.61683 -17.9482 -0.8472
326 3 41.1953 7.3441 -17.9325 0.4236
328 3 36.5169 8.23847 -18.2468 0.4236
334 3 36.2736 0.00273765 -17.1247 0.4236
1671 2 39.8524 0.488311 -21.6753 -0.8472
1697 2 39.7616 0.703102 -18.8724 -0.8472
1698 3 39.4394 1.58018 -18.516 0.4236
45 2 7.05845 8.92284 -21.3405 -0.8472
64 3 6.16645 9.14106 -17.9883 0.4236
370 3 6.13758 10.3318 -21.2809 0.4236
46 3 8.05212 8.86927 -21.4392 0.4236
336 1 0.71 16.78 -25 0
337 1 2.13 16.78 -25 0
338 1 4.97 16.78 -25 0
339 1 6.39 16.78 -25 0
340 1 0 15.55 -25 0
341 1 2.84 15.55 -25 0
342 1 4.26 15.55 -25 0
343 1 7.1 15.55 -25 0
344 1 0.71 14.32 -25 0
345 1 2.13 14.32 -25 0
346 1 4.97 14.32 -25 0
347 1 6.39 14.32 -25 0
348 1 0 13.09 -25 0
349 1 2.84 13.09 -25 0
350 1 4.26 13.09 -25 0
351 1 7.1 13.09 -25 0
352 1 0.71 11.86 -25 0
353 1 2.13 11.86 -25 0
354 1 4.97 11.86 -25 0
355 1 6.39 11.86 -25 0
356 1 0 10.63 -25 0
357 1 2.84 10.63 -25 0
358 1 4.26 10.63 -25 0
359 1 7.1 10.63 -25 0
360 1 0.71 9.4 -25 0
361 1 2.13 9.4 -25 0
362 1 4.97 9.4 -25 0
363 1 6.39 9.4 -25 0
364 2 0.769888 13.1865 -20.8053 -0.8472
365 3 1.6229 13.1419 -21.3253 0.4236
366 2 3.38333 13.0891 -21.799 -0.8472
367 3 3.90787 12.2914 -22.0965 0.4236
368 3 3.99786 13.751 -21.3697 0.4236
369 2 5.4386 11.0426 -21.3594 -0.8472
371 3 5.80356 11.9083 -21.0166 0.4236
374 2 4.75385 15.0853 -20.7166 -0.8472
375 3 4.24806 14.8179 -19.8964 0.4236
376 3 4.52154 16.0271 -20.9593 0.4236
377 2 6.59508 13.1498 -20.4398 -0.8472
378 3 7.08358 13.3493 -19.5904 0.4236
379 3 6.15234 13.9822 -20.7731 0.4236
384 3 0.820231 11.8225 -18.7264 0.4236
385 2 3.92924 11.2721 -19.0705 -0.8472
386 3 4.54368 10.9048 -19.7687 0.4236
387 3 3.72704 12.2299 -19.2749 0.4236
388 2 7.07836 10.6028 -17.5162 -0.8472
389 3 7.71439 10.7044 -16.7513 0.4236
390 3 7.09375 11.432 -18.0749 0.4236
391 3 0.667521 13.6266 -17.6273 0.4236
392 2 3.76172 14.2079 -18.313 -0.8472
393 3 4.21346 14.1702 -17.4217 0.4236
394 3 2.79049 14.4095 -18.1863 0.4236
395 2 7.46666 14.0048 -17.9674 -0.8472
396 3 7.82406 14.8453 -18.3746 0.4236
397 3 7.59106 14.0359 -16.9756 0.4236
398 3 0.527914 16.9169 -20.0039 0.4236
399 2 5.52719 17.6839 -18.5332 -0.8472
401 3 4.20778 10.5606 -17.4375 0.4236
637 2 0.984771 14.5655 -17.7611 -0.8472
638 3 0.513668 14.9677 -18.5462 0.4236
702 3 6.45407 17.5881 -18.8962 0.4236
703 3 4.8682 17.3614 -19.2127 0.4236
722 3 4.43505 17.5698 -17.0657 0.4236
383 2 0.345709 11.8835 -17.8483 -0.8472
615 3 0.133138 12.4966 -21.1496 0.4236
381 2 3.72575 17.6142 -21.099 -0.8472
400 2 8.50816 16.5382 -19.2628 -0.8472
682 3 2.85494 17.5765 -20.6088 0.4236
705 3 8.04197 17.1601 -19.8921 0.4236
2022 3 2.12243 17.5855 -16.7563 0.4236
105 3 10.2329 9.16876 -20.7297 0.4236
108 3 14.39 9.29397 -20.683 0.4236
121 3 10.8988 9.56714 -17.9363 0.4236
402 1 9.23 16.78 -25 0
403 1 10.65 16.78 -25 0
404 1 13.49 16.78 -25 0
405 1 14.91 16.78 -25 0
406 1 8.52 15.55 -25 0
407 1 11.36 15.55 -25 0
408 1 12.78 15.55 -25 0
409 1 15.62 15.55 -25 0
410 1 9.23 14.32 -25 0
411 1 10.65 14.32 -25 0
412 1 13.49 14.32 -25 0
413 1 14.91 14.32 -25 0
414 1 8.52 13.09 -25 0
415 1 11.36 13.09 -25 0
416 1 12.78 13.09 -25 0
417 1 15.62 13.09 -25 0
418 1 9.23 11.86 -25 0
419 1 10.65 11.86 -25 0
420 1 13.49 11.86 -25 0
421 1 14.91 11.86 -25 0
422 1 8.52 10.63 -25 0
423 1 11.36 10.63 -25 0
424 1 12.78 10.63 -25 0
425 1 15.62 10.63 -25 0
426 1 9.23 9.4 -25 0
427 1 10.65 9.4 -25 0
428 1 13.49 9.4 -25 0
429 1 14.91 9.4 -25 0
430 2 11.0005 10.6152 -20.9985 -0.8472
431 3 10.5883 11.4448 -20.6217 0.4236
432 3 11.9942 10.6606 -20.8959 0.4236
433 2 13.6901 10.7198 -19.9037 -0.8472
434 3 13.3788 11.1722 -19.068 0.4236
435 3 14.6505 10.9457 -20.0671 0.4236
436 2 9.65366 12.8646 -19.6246 -0.8472
437 3 10.2048 13.5942 -19.2198 0.4236
438 3 8.9626 13.264 -20.227 0.4236
439 2 13.9821 14.7234 -18.3073 -0.8472
440 3 14.0948 14.7904 -19.2987 0.4236
441 3 13.859 13.765 -18.0499 0.4236
442 2 10.3868 11.3286 -17.5351 -0.8472
443 3 10.1288 11.857 -18.344 0.4236
444 3 9.68606 11.4355 -16.8297 0.4236
445 2 13.2004 12.0896 -17.7851 -0.8472
446 3 13.7507 12.1381 -16.9515 0.4236
447 3 12.233 12.0176 -17.5422 0.4236
448 2 11.0059 14.7268 -18.0531 -0.8472
449 3 11.9575 14.4402 -17.942 0.4236
450 3 10.5831 14.8349 -17.1534 0.4236
451 2 15.5605 16.8771 -17.4232 -0.8472
452 3 14.8621 16.2243 -17.7168 0.4236
454 2 11.2748 17.5335 -18.7241 -0.8472
757 2 14.0435 16.7587 -21.9148 -0.8472
758 3 13.3307 17.2751 -21.4401 0.4236
759 3 13.9017 16.8255 -22.9024 0.4236
820 3 15.6934 16.4413 -21.4791 0.4236
505 2 16.27 11.004 -17.0805 -0.8472
507 3 16.0927 10.0269 -17.1986 0.4236
818 2 16.6896 16.3815 -21.5421 -0.8472
819 3 17.0394 17.1693 -22.0491 0.4236
704 3 9.40594 16.9116 -19.0293 0.4236
773 3 11.1306 16.5955 -18.4089 0.4236
169 2 17.2537 8.91832 -19.9282 -0.8472
172 2 20.1259 9.41269 -19.473 -0.8472
173 3 20.5111 9.6282 -20.3703 0.4236
174 3 19.1569 9.18647 -19.5719 0.4236
487 3 18.7012 11.343 -21.0937 0.4236
522 3 17.1957 16.7429 -18.0088 0.4236
171 3 17.1959 9.91624 -19.9567 0.4236
458 1 17.75 16.78 -25 0
459 1 19.17 16.78 -25 0
460 1 22.01 16.78 -25 0
461 1 23.43 16.78 -25 0
462 1 17.04 15.55 -25 0
463 1 19.88 15.55 -25 0
464 1 21.3 15.55 -25 0
465 1 24.14 15.55 -25 0
466 1 17.75 14.32 -25 0
467 1 19.17 14.32 -25 0
468 1 22.01 14.32 -25 0
469 1 23.43 14.32 -25 0
470 1 17.04 13.09 -25 0
471 1 19.88 13.09 -25 0
472 1 21.3 13.09 -25 0
473 1 24.14 13.09 -25 0
474 1 17.75 11.86 -25 0
475 1 19.17 11.86 -25 0
476 1 22.01 11.86 -25 0
477 1 23.43 11.86 -25 0
478 1 17.04 10.63 -25 0
479 1 19.88 10.63 -25 0
480 1 21.3 10.63 -25 0
481 1 24.14 10.63 -25 0
482 1 17.75 9.4 -25 0
483 1 19.17 9.4 -25 0
484 1 22.01 9.4 -25 0
485 1 23.43 9.4 -25 0
486 2 17.81 11.5037 -20.6695 -0.8472
488 3 17.7273 12.4695 -20.4234 0.4236
489 2 21.436 9.88855 -21.921 -0.8472
490 3 22.3091 10.3291 -21.7117 0.4236
491 3 21.5807 9.16685 -22.5979 0.4236
492 2 23.8701 10.8701 -21.4401 -0.8472
493 3 24.5332 11.6087 -21.5616 0.4236
494 3 24.1334 10.3119 -20.6533 0.4236
495 2 18.4869 14.5161 -20.7365 -0.8472
496 3 19.1246 14.3432 -21.487 0.4236
497 3 17.89 15.2819 -20.9759 0.4236
498 2 20.8196 12.9057 -21.7977 -0.8472
499 3 21.6453 13.2672 -21.3647 0.4236
500 3 21.0219 12.0188 -22.2131 0.4236
501 2 25.1852 13.2731 -21.6694 -0.8472
502 3 25.0609 13.6329 -22.5941 0.4236
508 2 22.1863 10.5142 -17.644 -0.8472
509 3 22.2679 11.5049 -17.5346 0.4236
510 3 21.5196 10.3118 -18.3613 0.4236
512 3 23.7575 9.98533 -18.4624 0.4236
513 2 19.3438 14.2418 -18.1404 -0.8472
514 3 19.3894 13.927 -19.0885 0.4236
515 3 19.1224 15.2168 -18.1232 0.4236
516 2 22.0679 13.3118 -17.7712 -0.8472
517 3 22.523 13.6074 -18.6111 0.4236
518 3 21.0873 13.4951 -17.8411 0.4236
519 2 22.956 14.0107 -20.3348 -0.8472
520 3 23.8471 13.7346 -20.6949 0.4236
521 3 22.8282 14.9921 -20.4779 0.4236
843 3 17.7808 16.4476 -19.5045 0.4236
846 2 23.2935 16.934 -20.2072 -0.8472
847 3 22.9781 17.5199 -19.4606 0.4236
864 3 24.7196 16.3588 -18.8051 0.4236
914 3 23.5254 17.4989 -20.9991 0.4236
2115 3 24.3556 13.7555 -16.8778 0.4236
511 2 24.4559 9.61417 -19.0744 -0.8472
570 3 25.3629 9.79869 -18.6959 0.4236
842 2 18.0238 16.6991 -18.5676 -0.8472
2116 3 18.7801 17.4949 -17.3036 0.4236
2114 3 24.8505 15.3114 -16.9051 0.4236
2381 2 24.7588 16.5798 -17.8306 -0.8472
2382 3 24.014 17.2062 -17.6006 0.4236
245 2 31.2923 8.92533 -21.1578 -0.8472
246 3 30.5646 9.34733 -20.6171 0.4236
572 3 27.6175 8.94111 -18.9117 0.4236
527 1 26.27 16.78 -25 0
528 1 27.69 16.78 -25 0
529 1 30.53 16.78 -25 0
530 1 31.95 16.78 -25 0
531 1 25.56 15.55 -25 0
532 1 28.4 15.55 -25 0
533 1 29.82 15.55 -25 0
534 1 32.66 15.55 -25 0
535 1 26.27 14.32 -25 0
536 1 27.69 14.32 -25 0
537 1 30.53 14.32 -25 0
538 1 31.95 14.32 -25 0
539 1 25.56 13.09 -25 0
540 1 28.4 13.09 -25 0
541 1 29.82 13.09 -25 0
542 1 32.66 13.09 -25 0
543 1 26.27 11.86 -25 0
544 1 27.69 11.86 -25 0
545 1 30.53 11.86 -25 0
546 1 31.95 11.86 -25 0
547 1 25.56 10.63 -25 0
548 1 28.4 10.63 -25 0
549 1 29.82 10.63 -25 0
550 1 32.66 10.63 -25 0
551 1 26.27 9.4 -25 0
552 1 27.69 9.4 -25 0
553 1 30.53 9.4 -25 0
554 1 31.95 9.4 -25 0
555 2 28.6605 10.3351 -21.3235 -0.8472
556 3 27.9723 10.2482 -20.6033 0.4236
557 3 28.6796 9.49737 -21.8692 0.4236
558 2 33.4389 12.0938 -21.6616 -0.8472
560 3 32.8185 11.3244 -21.8133 0.4236
561 3 26.1615 13.1651 -21.4822 0.4236
562 2 27.9241 12.9974 -21.4893 -0.8472
563 3 28.2568 12.0586 -21.4001 0.4236
564 3 28.4589 13.5984 -20.8953 0.4236
565 2 33.2282 15.192 -21.5794 -0.8472
566 3 32.8047 14.9747 -20.6999 0.4236
567 3 33.2636 14.368 -22.1449 0.4236
569 3 32.8358 17.3287 -21.5783 0.4236
571 2 27.1941 9.84703 -18.9174 -0.8472
573 3 27.8304 10.5148 -18.5312 0.4236
574 2 32.8769 12.702 -18.5931 -0.8472
575 3 32.2944 13.4201 -18.9738 0.4236
576 3 33.3638 12.2398 -19.3342 0.4236
577 2 28.8817 14.857 -19.7594 -0.8472
578 3 28.4528 14.6079 -18.8911 0.4236
579 3 28.7557 15.8351 -19.9249 0.4236
580 2 31.5798 14.8411 -19.373 -0.8472
581 3 31.8318 15.7157 -18.9588 0.4236
582 3 30.5894 14.8087 -19.5068 0.4236
915 2 29.1112 17.6998 -19.3241 -0.8472
917 2 31.9176 17.5744 -18.5668 -0.8472
2169 3 31.5818 12.472 -17.1599 0.4236
2165 2 29.0114 10.8728 -17.3377 -0.8472
2166 3 29.6075 11.6423 -17.1083 0.4236
2167 3 29.4459 10.0182 -17.0535 0.4236
2171 2 27.9482 14.009 -16.985 -0.8472
2172 3 28.2654 13.0717 -16.8406 0.4236
2175 3 26.388 17.5159 -17.3597 0.4236
647 3 33.9496 12.2491 -17.3152 0.4236
327 2 36.2244 8.88067 -18.9553 -0.8472
329 3 36.5902 9.78916 -18.7534 0.4236
330 2 40.1297 9.07878 -17.7244 -0.8472
332 3 39.6357 8.88745 -16.8763 0.4236
373 3 42.3834 14.6276 -20.5813 0.4236
559 3 34.3646 11.7496 -21.5048 0.4236
331 3 40.2893 10.0629 -17.8025 0.4236
372 2 41.955 15.3937 -20.1022 -0.8472
587 1 34.79 16.78 -25 0
588 1 36.21 16.78 -25 0
589 1 39.05 16.78 -25 0
590 1 40.47 16.78 -25 0
591 1 34.08 15.55 -25 0
592 1 36.92 15.55 -25 0
593 1 38.34 15.55 -25 0
594 1 41.18 15.55 -25 0
595 1 34.79 14.32 -25 0
596 1 36.21 14.32 -25 0
597 1 39.05 14.32 -25 0
598 1 40.47 14.32 -25 0
599 1 34.08 13.09 -25 0
600 1 36.92 13.09 -25 0
601 1 38.34 13.09 -25 0
602 1 41.18 13.09 -25 0
603 1 34.79 11.86 -25 0
604 1 36.21 11.86 -25 0
605 1 39.05 11.86 -25 0
606 1 40.47 11.86 -25 0
607 1 34.08 10.63 -25 0
608 1 36.92 10.63 -25 0
609 1 38.34 10.63 -25 0
610 1 41.18 10.63 -25 0
611 1 34.79 9.4 -25 0
612 1 36.21 9.4 -25 0
613 1 39.05 9.4 -25 0
614 1 40.47 9.4 -25 0
616 2 36.1432 12.196 -21.6122 -0.8472
617 3 37.107 12.0748 -21.8498 0.4236
618 3 35.911 13.1681 -21.647 0.4236
619 2 41.4811 11.2215 -21.4647 -0.8472
620 3 41.1924 10.3068 -21.7474 0.4236
621 3 41.071 11.4418 -20.5797 0.4236
622 3 41.1018 15.6394 -20.5622 0.4236
623 2 35.9075 15.0823 -21.2972 -0.8472
624 3 34.9631 15.146 -21.6199 0.4236
625 3 36.3192 15.9935 -21.2895 0.4236
626 2 39.805 15.7117 -21.3702 -0.8472
627 3 39.5454 16.6766 -21.4093 0.4236
628 3 38.9896 15.1426 -21.4759 0.4236
630 3 41.972 11.6991 -17.9821 0.4236
631 2 37.0679 11.4417 -18.2964 -0.8472
632 3 36.325 11.3769 -17.6301 0.4236
633 3 37.0841 12.3611 -18.6893 0.4236
634 2 40.1292 11.8008 -18.5101 -0.8472
635 3 39.2019 11.4265 -18.5065 0.4236
636 3 40.0966 12.7743 -18.2837 0.4236
639 2 37.2661 14.2403 -19.0741 -0.8472
640 3 36.8881 14.7278 -18.287 0.4236
641 3 36.7005 14.4182 -19.8794 0.4236
642 2 40.0457 14.4484 -18.3001 -0.8472
643 3 39.1032 14.41 -18.6321 0.4236
644 3 40.6356 14.8251 -19.0143 0.4236
964 2 37.5962 17.4833 -21.5701 -0.8472
2212 2 36.9637 15.5815 -16.8528 -0.8472
2214 3 36.2377 16.2563 -16.9855 0.4236
2505 2 35.0736 17.6139 -17.216 -0.8472
983 2 0.976208 17.7732 -19.7476 -0.8472
2504 3 1.19875 17.9428 -18.0547 0.4236
382 3 7.29591 18.6145 -21.5453 0.4236
652 1 0 25.38 -25 0
653 1 2.84 25.38 -25 0
654 1 4.26 25.38 -25 0
655 1 7.1 25.38 -25 0
656 1 0.71 24.15 -25 0
657 1 2.13 24.15 -25 0
658 1 4.97 24.15 -25 0
659 1 6.39 24.15 -25 0
660 1 0 22.92 -25 0
661 1 2.84 22.92 -25 0
662 1 4.26 22.92 -25 0
663 1 7.1 22.92 -25 0
664 1 0.71 21.69 -25 0
665 1 2.13 21.69 -25 0
666 1 4.97 21.69 -25 0
667 1 6.39 21.69 -25 0
668 1 0 20.46 -25 0
669 1 2.84 20.46 -25 0
670 1 4.26 20.46 -25 0
671 1 7.1 20.46 -25 0
672 1 0.71 19.23 -25 0
673 1 2.13 19.23 -25 0
674 1 4.97 19.23 -25 0
675 1 6.39 19.23 -25 0
676 1 0 18 -25 0
677 1 2.84 18 -25 0
678 1 4.26 18 -25 0
679 1 7.1 18 -25 0
680 3 0.0968824 20.6965 -20.6086 0.4236
681 3 3.69763 18.3531 -21.7722 0.4236
683 2 7.3587 18.7893 -20.5627 -0.8472
684 3 8.08622 19.4528 -20.3881 0.4236
685 2 1.14709 21.9819 -20.6949 -0.8472
686 3 2.05951 21.821 -21.0712 0.4236
687 2 3.66049 21.5926 -21.5513 -0.8472
688 3 4.29806 21.3394 -20.8237 0.4236
689 3 4.08914 22.2698 -22.1493 0.4236
693 2 1.02261 24.8047 -21.1759 -0.8472
694 3 0.971657 25.0859 -20.2176 0.4236
695 2 3.6901 24.7871 -21.4761 -0.8472
696 3 2.69689 24.8004 -21.3605 0.4236
701 3 0.526541 18.5366 -20.2113 0.4236
706 2 1.05246 22.2016 -17.9004 -0.8472
707 3 1.17217 22.0124 -18.875 0.4236
708 2 5.57724 21.0742 -19.3439 -0.8472
709 3 6.28933 20.3897 -19.5003 0.4236
710 3 5.31808 21.0709 -18.3781 0.4236
716 2 5.56567 23.6998 -19.9301 -0.8472
717 3 5.31595 22.7974 -19.5789 0.4236
718 3 4.85725 24.0205 -20.5588 0.4236
719 2 8.14225 24.0134 -19.0225 -0.8472
720 3 8.02349 25.0052 -18.9758 0.4236
721 3 7.36398 23.6067 -19.501 0.4236
724 3 5.47188 24.2345 -17.865 0.4236
996 3 1.37469 25.2815 -18.0027 0.4236
2264 3 1.99964 20.9616 -17.0051 0.4236
714 2 0.707006 25.6111 -18.6702 -0.8472
969 3 0.783919 22.8405 -21.0568 0.4236
976 3 0.10937 24.5575 -21.4997 0.4236
989 3 1.17135 23.1804 -17.7337 0.4236
697 3 4.00131 25.6844 -21.7892 0.4236
1041 3 8.34872 26.3452 -21.1982 0.4236
2503 2 1.34186 18.1197 -17.081 -0.8472
725 3 8.43706 24.6158 -16.7749 0.4236
2270 2 2.46214 24.9275 -16.8323 -0.8472
2271 3 3.41131 24.6258 -16.922 0.4236
2272 2 5.20351 24.1662 -16.9041 -0.8472
453 3 15.1191 17.7116 -17.0935 0.4236
690 2 9.81357 20.2199 -20.3624 -0.8472
692 3 9.68871 20.8807 -19.6224 0.4236
698 2 9.57161 24.9577 -21.2872 -0.8472
700 3 9.30719 24.318 -20.5655 0.4236
711 2 9.84638 20.8965 -17.6177 -0.8472
712 3 10.4502 20.1923 -17.2441 0.4236
713 3 9.22842 21.2201 -16.9011 0.4236
691 3 10.7411 20.2997 -20.7276 0.4236
699 3 10.3195 25.5364 -20.9621 0.4236
726 1 8.52 25.38 -25 0
727 1 11.36 25.38 -25 0
728 1 12.78 25.38 -25 0
729 1 15.62 25.38 -25 0
730 1 9.23 24.15 -25 0
731 1 10.65 24.15 -25 0
732 1 13.49 24.15 -25 0
733 1 14.91 24.15 -25 0
734 1 8.52 22.92 -25 0
735 1 11.36 22.92 -25 0
736 1 12.78 22.92 -25 0
737 1 15.62 22.92 -25 0
738 1 9.23 21.69 -25 0
739 1 10.65 21.69 -25 0
740 1 13.49 21.69 -25 0
741 1 14.91 21.69 -25 0
742 1 8.52 20.46 -25 0
743 1 11.36 20.46 -25 0
744 1 12.78 20.46 -25 0
745 1 15.62 20.46 -25 0
746 1 9.23 19.23 -25 0
747 1 10.65 19.23 -25 0
748 1 13.49 19.23 -25 0
749 1 14.91 19.23 -25 0
750 1 8.52 18 -25 0
751 1 11.36 18 -25 0
752 1 12.78 18 -25 0
753 1 15.62 18 -25 0
754 2 12.0473 18.4068 -21.3271 -0.8472
755 3 11.5276 18.2314 -20.4909 0.4236
756 3 12.3737 19.352 -21.3245 0.4236
760 2 12.6195 21.0844 -20.6828 -0.8472
761 3 13.5465 21.4151 -20.8598 0.4236
762 3 12.2136 21.6133 -19.9374 0.4236
763 2 15.1454 22.4218 -20.2338 -0.8472
764 3 15.1006 22.1435 -19.2743 0.4236
765 3 15.2914 23.4096 -20.2878 0.4236
766 2 12.1065 25.9518 -20.4962 -0.8472
768 3 12.6756 25.5406 -21.2082 0.4236
769 2 15.9148 25.5105 -20.1271 -0.8472
770 3 15.3345 26.2194 -20.528 0.4236
771 3 15.4767 25.1463 -19.3053 0.4236
772 3 11.3738 18.139 -17.9344 0.4236
774 2 14.2437 19.3271 -17.3264 -0.8472
775 3 14.0369 19.1409 -18.2869 0.4236
776 3 14.6718 20.2272 -17.246 0.4236
777 2 11.5502 22.9449 -18.5196 -0.8472
778 3 10.9462 22.2902 -18.0651 0.4236
779 3 11.2135 23.8734 -18.3627 0.4236
780 2 15.2453 21.826 -17.6594 -0.8472
781 3 16.1064 21.539 -17.2397 0.4236
782 3 14.8889 22.6254 -17.1758 0.4236
783 2 10.8025 25.5797 -18.086 -0.8472
784 3 9.96014 26.1125 -18.0052 0.4236
785 3 11.2984 25.8627 -18.9069 0.4236
786 2 14.1484 24.4405 -18.3276 -0.8472
787 3 14.0191 24.9192 -17.4592 0.4236
788 3 13.3345 23.8971 -18.533 0.4236
827 3 17.0131 21.8628 -19.7807 0.4236
523 2 22.5928 18.8358 -18.0686 -0.8472
503 3 20.7006 19.8636 -20.8843 0.4236
504 3 23.6489 20.0543 -20.6675 0.4236
790 1 17.04 25.38 -25 0
791 1 19.88 25.38 -25 0
792 1 21.3 25.38 -25 0
793 1 24.14 25.38 -25 0
794 1 17.75 24.15 -25 0
795 1 19.17 24.15 -25 0
796 1 22.01 24.15 -25 0
797 1 23.43 24.15 -25 0
798 1 17.04 22.92 -25 0
799 1 19.88 22.92 -25 0
800 1 21.3 22.92 -25 0
801 1 24.14 22.92 -25 0
802 1 17.75 21.69 -25 0
803 1 19.17 21.69 -25 0
804 1 22.01 21.69 -25 0
805 1 23.43 21.69 -25 0
806 1 17.04 20.46 -25 0
807 1 19.88 20.46 -25 0
808 1 21.3 20.46 -25 0
809 1 24.14 20.46 -25 0
810 1 17.75 19.23 -25 0
811 1 19.17 19.23 -25 0
812 1 22.01 19.23 -25 0
813 1 23.43 19.23 -25 0
814 1 17.04 18 -25 0
815 1 19.88 18 -25 0
816 1 21.3 18 -25 0
817 1 24.14 18 -25 0
821 2 21.6738 20.0026 -20.7013 -0.8472
822 3 21.8407 20.9679 -20.5004 0.4236
823 2 24.6373 20.0427 -20.8186 -0.8472
824 3 24.9508 20.9651 -21.0442 0.4236
825 2 17.9443 21.6078 -19.5203 -0.8472
826 3 17.9346 21.1955 -18.6093 0.4236
828 2 20.688 22.5006 -19.9075 -0.8472
829 3 20.7047 23.4 -20.3443 0.4236
830 3 19.7408 22.1958 -19.8084 0.4236
832 3 24.8066 23.0421 -20.1283 0.4236
833 3 24.8606 23.8411 -21.5514 0.4236
837 2 20.7645 25.1935 -20.5232 -0.8472
838 3 20.7822 25.6298 -19.6236 0.4236
839 3 20.3225 25.8035 -21.1809 0.4236
840 2 23.9857 25.6707 -21.7471 -0.8472
841 3 23.1199 25.1963 -21.9064 0.4236
844 3 22.2858 19.1549 -17.172 0.4236
845 3 22.6187 19.6062 -18.7056 0.4236
848 2 17.635 20.679 -16.8191 -0.8472
849 3 17.8545 19.7049 -16.7649 0.4236
851 2 21.9693 22.1773 -17.5633 -0.8472
852 3 21.41 22.2928 -18.3842 0.4236
853 3 21.42 22.3848 -16.7538 0.4236
854 2 24.5131 22.8498 -18.205 -0.8472
855 3 23.6158 22.4221 -18.096 0.4236
859 2 20.6037 26.4382 -18.1807 -0.8472
860 3 21.5515 26.1239 -18.2343 0.4236
862 2 23.1409 25.5612 -18.3017 -0.8472
863 3 23.9036 26.1823 -18.4822 0.4236
919 3 25.0952 22.6057 -17.4294 0.4236
926 3 23.4957 24.679 -17.992 0.4236
831 2 24.951 22.9468 -21.1132 -0.8472
2378 3 19.7315 18.7433 -16.8531 0.4236
583 3 30.0981 17.8504 -19.2668 0.4236
584 3 32.4679 17.7716 -19.3782 0.4236
2445 3 27.7665 17.9413 -18.1249 0.4236
568 3 27.1018 19.2978 -21.3365 0.4236
869 1 25.56 25.38 -25 0
870 1 28.4 25.38 -25 0
871 1 29.82 25.38 -25 0
872 1 32.66 25.38 -25 0
873 1 26.27 24.15 -25 0
874 1 27.69 24.15 -25 0
875 1 30.53 24.15 -25 0
876 1 31.95 24.15 -25 0
877 1 25.56 22.92 -25 0
878 1 28.4 22.92 -25 0
879 1 29.82 22.92 -25 0
880 1 32.66 22.92 -25 0
881 1 26.27 21.69 -25 0
882 1 27.69 21.69 -25 0
883 1 30.53 21.69 -25 0
884 1 31.95 21.69 -25 0
885 1 25.56 20.46 -25 0
886 1 28.4 20.46 -25 0
887 1 29.82 20.46 -25 0
888 1 32.66 20.46 -25 0
889 1 26.27 19.23 -25 0
890 1 27.69 19.23 -25 0
891 1 30.53 19.23 -25 0
892 1 31.95 19.23 -25 0
893 1 25.56 18 -25 0
894 1 28.4 18 -25 0
895 1 29.82 18 -25 0
896 1 32.66 18 -25 0
897 2 27.9303 19.6554 -20.9056 -0.8472
898 3 27.825 20.6366 -20.7439 0.4236
899 2 33.1237 18.128 -21.0508 -0.8472
900 3 32.4794 18.8775 -21.2028 0.4236
901 2 27.5216 22.3622 -21.3673 -0.8472
902 3 27.7286 22.4586 -22.3409 0.4236
903 3 26.5465 22.5248 -21.2162 0.4236
904 2 31.1786 19.9926 -20.7182 -0.8472
905 3 31.3648 20.5935 -19.9409 0.4236
906 3 30.2879 20.2219 -21.1107 0.4236
908 2 26.5378 26.2303 -21.3214 -0.8472