7953
 Atoms. Timestep: 500
3 4.21323 1.03037 -19.8716
3 7.24906 3.95903 -21.0857
3 5.86085 3.40401 -21.7426
2 41.6561 3.97519 -21.1755
3 41.665 4.01685 -20.1761
2 4.58897 5.12752 -21.3021
3 5.40746 5.45094 -20.8269
3 3.92163 5.87007 -21.3592
2 7.74224 5.66687 -20.5359
3 8.65347 5.94934 -20.8353
3 7.76093 5.46621 -19.556
2 42.2688 7.00754 -20.8641
3 42.3754 6.93188 -19.8723
2 2.51026 7.23195 -21.0883
3 2.60007 8.18166 -21.3879
3 1.54251 6.98171 -21.0588
2 7.10591 8.42 -21.5084
3 8.09463 8.35066 -21.3753
3 6.77817 7.61298 -21.9993
3 5.31576 2.82883 -18.5871
3 5.74612 2.20311 -20.0328
3 9.24685 1.34189 -20.5644
2 41.5194 4.01346 -18.5356
3 41.8627 4.94525 -18.4172
2 5.46893 4.49728 -17.7148
3 6.42995 4.75381 -17.6113
3 4.92969 5.30871 -17.9398
2 8.45136 4.30239 -18.31
3 9.06093 3.74097 -18.8693
3 8.9535 4.6534 -17.5193
3 0.0899156 6.83561 -17.3218
2 4.07305 6.71071 -18.5419
3 4.79323 7.39827 -18.6343
3 3.50879 6.70566 -19.3671
2 5.87298 8.59449 -18.9101
3 6.25263 9.21686 -18.2253
3 6.44048 8.61793 -19.7328
3 0.393241 3.47185 -16.8243
3 12.6414 0.411998 -20.9494
3 14.7234 2.30994 -19.7769
2 12.4283 6.37851 -20.5509
3 13.3869 6.55977 -20.7704
3 11.8486 7.05539 -21.0041
2 14.1933 3.13443 -18.1925
3 14.2553 2.98844 -17.2048
3 13.3374 3.60523 -18.4063
2 9.66071 7.90672 -20.9729
3 9.61732 7.82478 -19.9769
3 10.3654 8.57093 -21.2219
2 14.7764 7.89189 -21.0577
3 15.7691 7.83491 -20.9514
3 14.4648 8.80439 -20.7923
3 10.9091 3.34241 -19.1592
3 10.9984 1.81583 -19.7321
2 14.6038 44.2514 -18.1754
3 14.6059 0.771525 -18.7864
2 11.7534 4.6497 -18.6125
3 11.975 5.32189 -19.3186
3 11.2086 5.086 -17.8961
2 13.2042 5.9573 -15.9875
3 13.4872 6.46728 -16.7995
3 12.2071 5.88222 -15.9714
2 9.40232 7.48266 -18.3639
3 9.26591 6.75235 -17.6942
3 9.45817 8.36202 -17.8907
2 14.1817 7.50404 -18.0741
3 13.9059 8.35306 -17.6231
3 13.8435 7.50114 -19.0148
3 9.60491 4.57831 -15.8832
3 14.2983 4.58238 -15.8447
3 10.3751 8.31886 -14.2816
3 13.0763 6.24974 -12.7542
3 19.5081 0.902483 -21.3046
3 22.1519 0.903741 -20.9259
2 27.2115 0.82381 -19.9435
3 28.1737 1.04405 -20.1032
2 20.7326 4.43605 -21.0315
3 19.9774 3.79344 -21.1604
3 20.3668 5.3413 -20.8152
2 22.8837 2.71833 -20.3881
3 22.2169 3.21703 -20.9415
3 22.9339 3.12822 -19.477
2 25.7225 3.09626 -20.4378
3 24.7933 2.76 -20.5912
2 17.4138 8.46058 -20.5575
3 17.2924 8.56 -19.5696
3 17.3975 9.3631 -20.9875
2 20.3178 7.93961 -20.5794
3 20.7429 8.81441 -20.8114
3 19.3228 8.03256 -20.6149
2 26.0439 5.94663 -21.165
3 25.319 6.29027 -20.5676
2 17.7651 1.93161 -18.7686
3 17.4406 2.86487 -18.9222
3 21.3168 2.02179 -17.9025
3 26.3517 1.47625 -18.4773
2 16.731 4.61385 -18.7426
3 17.272 5.39949 -18.4423
3 15.8563 4.60689 -18.2575
2 22.1992 3.36208 -17.6227
3 21.5541 3.97342 -17.164
3 23.0766 3.38329 -17.143
2 25.3727 4.47576 -18.2178
3 25.4687 3.88981 -19.0221
2 16.8926 8.27832 -17.9027
3 17.4686 7.75633 -17.2732
3 15.9889 7.85361 -17.9571
2 21.7575 7.42284 -17.9356
3 21.1104 7.39058 -17.1735
3 21.2552 7.41428 -18.7999
2 24.1646 6.80736 -19.0376
3 23.2316 6.68822 -18.6976
3 19.9242 0.623768 -16.6975
3 25.6926 1.91987 -15.4314
3 19.6203 4.44494 -16.0079
3 24.7385 4.43864 -16.7054
3 23.1534 7.39148 -16.6687
2 29.7713 1.37882 -20.2203
3 29.9422 2.29373 -20.5857
2 34.2829 1.09355 -20.9634
3 33.6081 1.05831 -20.2258
3 26.371 2.34175 -20.5383
2 29.6024 4.14116 -20.7815
3 29.443 4.47403 -19.8518
3 29.3552 4.854 -21.4375
2 35.021 3.56297 -21.6917
3 34.2591 4.09249 -21.3183
3 35.1258 3.76956 -22.6641
3 25.9166 4.96592 -21.313
2 28.2036 7.51073 -21.6029
3 28.5748 7.51506 -20.674
3 27.4172 6.89447 -21.6443
2 31.1734 8.8599 -21.0854
3 30.766 9.25691 -21.9075
3 30.45 8.61741 -20.4385
3 25.9213 2.71128 -17.4995
3 30.392 1.5448 -16.7226
3 30.7826 2.67079 -17.8389
3 33.402 44.2491 -17.8301
3 31.9909 0.76196 -18.0768
3 25.0415 5.37646 -18.4987
2 28.2902 5.05205 -18.2862
3 28.6367 4.67375 -17.4275
3 27.2957 4.95181 -18.3168
2 33.061 4.88845 -20.275
3 32.0841 4.77209 -20.4538
3 33.2653 5.86056 -20.1594
3 24.3068 7.76371 -19.2926
2 28.8689 7.61795 -18.9747
3 28.5227 6.68323 -18.8944
3 29.5823 7.76884 -18.2899
2 33.496 7.80021 -19.8056
3 34.3306 8.34585 -19.7292
3 32.8119 8.30866 -20.3281
3 29.7095 1.79311 -14.2498
3 32.9838 7.02974 -18.3481
3 0.23607 2.27861 -20.9889
3 35.6301 44.3598 -21.2199
3 39.2722 43.1011 -21.1556
3 37.9538 44.0602 -21.2492
3 41.9104 4.86744 -21.5482
2 37.3071 4.11562 -20.0728
3 36.3667 3.92915 -20.3567
3 37.9403 3.63757 -20.6811
2 39.1326 2.38284 -21.2363
3 40.0372 2.77041 -21.4135
3 39.1845 1.38487 -21.2729
3 41.4862 7.59452 -21.0711
2 37.6113 6.87767 -20.1653
3 37.0704 7.32067 -19.4499
3 37.3822 5.90495 -20.2017
2 40.0935 8.4993 -20.272
3 40.1341 8.63111 -19.2812
3 39.2966 7.9404 -20.501
3 41.3032 1.00047 -18.1044
3 35.954 0.281375 -18.2916
3 39.3611 0.54175 -19.3924
3 40.5638 3.97083 -18.2437
2 34.9054 3.36674 -18.2343
3 34.2884 3.89545 -18.8168
3 35.1964 3.92913 -17.4599
2 38.9651 3.65167 -17.9719
3 38.5739 3.75795 -17.0574
3 38.2484 3.77715 -18.6576
2 42.2469 6.83786 -18.2187
3 41.5461 7.55081 -18.242
2 35.8851 8.82599 -18.3832
3 35.8617 8.50494 -17.4361
3 36.0143 9.81753 -18.3955
2 40.2999 8.75529 -17.6854
3 40.2708 9.71318 -17.9707
3 39.6042 8.59501 -16.9848
3 0.809267 0.338007 -16.577
3 36.1689 0.705002 -15.4087
3 38.8456 7.73434 -14.9571
2 1.34375 12.4942 -20.827
3 2.2181 12.3832 -21.2991
2 3.80596 12.3848 -21.9246
3 4.57345 11.7504 -21.8325
3 4.13249 13.3224 -21.8047
2 5.89474 10.7782 -21.6115
3 6.438 9.93868 -21.608
3 6.32444 11.4556 -21.014
2 42.218 14.7971 -20.4394
3 0.272723 14.0501 -20.5543
2 4.98371 14.8175 -20.6264
3 4.36001 14.7107 -19.8518
3 5.18524 15.7878 -20.7604
2 6.91607 12.8472 -20.2447
3 7.32419 12.9772 -19.3407
3 6.33808 13.6328 -20.4652
2 42.5562 19.4818 -21.3318
2 3.30874 18.9416 -21.0712
3 6.22598 19.5428 -21.5559
2 0.577815 12.158 -18.0293
3 1.04314 12.2286 -18.9113
2 4.06316 11.625 -18.5827
3 4.40937 11.4573 -19.5054
3 3.56753 12.4934 -18.5649
2 7.25737 9.79968 -16.8938
3 7.50944 9.9051 -15.9315
3 7.5358 10.6143 -17.4022
3 0.738603 13.825 -17.5347
2 3.62079 14.3852 -18.2846
3 4.33181 14.5965 -17.6136
3 2.74207 14.7355 -17.9601
2 8.33594 12.9862 -17.8886
3 9.23017 13.4291 -17.9531
3 7.90706 13.227 -17.0176
3 0.165048 16.6938 -20.044
2 4.88568 17.7197 -18.8732
2 7.61528 18.5199 -18.4594
3 4.35421 10.6715 -17.196
2 11.4967 9.73473 -21.0648
3 10.9368 10.5476 -21.2251
3 12.3649 10.0049 -20.6483
2 14.1407 10.3494 -20.0301
3 14.1472 10.5781 -19.0563
3 14.8733 10.8471 -20.494
2 10.0142 12.3798 -20.8368
3 10.2936 13.3361 -20.7505
3 9.01586 12.3246 -20.8542
2 12.8779 15.813 -19.0295
3 12.4057 16.4788 -19.6069
3 13.8555 16.0225 -19.0097
2 10.8963 10.5272 -17.4452
3 10.7694 10.6787 -18.4251
3 10.6353 11.3522 -16.9435
2 13.5173 10.2255 -17.2044
3 13.7806 10.9884 -16.6135
3 12.5264 10.2345 -17.3382
2 10.7763 14.4088 -18.0728
3 11.6881 14.6372 -18.4138
3 10.859 13.8083 -17.277
2 15.3513 17.7295 -17.8145
3 14.7215 17.9753 -17.0773
3 16.2602 18.094 -17.6113
2 10.1642 17.2465 -18.0982
3 10.9539 10.2512 -15.4038
3 9.4012 12.6695 -15.56
3 15.6965 15.4515 -17.0115
2 16.9252 10.8983 -21.4294
3 16.6764 10.7089 -22.3789
3 17.4299 11.7604 -21.3823
2 21.2832 10.4169 -21.2127
3 22.0967 10.808 -20.7819
3 20.6156 11.1415 -21.3835
2 23.481 11.5506 -19.9561
3 24.0571 12.2325 -20.4064
3 24.0542 10.8117 -19.6014
2 18.6989 13.9204 -20.6493
3 19.6493 14.0951 -20.9064
3 18.1589 14.7512 -20.7841
2 21.2579 14.1613 -21.6329
3 21.7148 13.7197 -22.4046
3 21.9413 14.4527 -20.9631
2 24.7635 13.3894 -21.4817
3 24.5622 13.0359 -22.3949
3 22.2249 19.9998 -22.5123
3 24.601 20.1166 -21.1598
2 16.7142 10.5339 -16.5976
3 15.8879 11.0865 -16.7056
3 16.6714 9.74623 -17.2119
2 21.8826 11.6428 -17.7126
3 22.4558 12.0468 -16.9993
3 22.2967 11.8091 -18.6071
2 25.0605 9.38375 -19.193
3 25.0452 9.40821 -18.193
2 20.0814 13.6262 -18.4244
3 19.5044 13.5839 -19.2396
3 20.3995 12.7068 -18.1927
2 22.6884 14.6663 -17.7346
3 23.2773 15.1388 -18.3898
3 21.8275 14.4179 -18.1782
2 23.499 15.3675 -20.169
3 23.9844 14.5141 -20.3585
3 24.1495 16.1269 -20.1635
3 18.8805 16.765 -18.2467
2 22.3777 18.7383 -17.6605
3 17.9626 10.1468 -15.3039
3 26.4828 9.6356 -16.5483
3 21.395 14.3131 -16.3852
2 28.6122 10.4365 -21.6694
3 28.3062 10.3779 -20.7188
3 28.2537 9.65747 -22.1833
2 33.8067 11.9211 -21.4424
3 34.8055 11.951 -21.4017
3 33.5194 11.1632 -22.0277
3 25.748 13.3384 -21.3137
2 27.5362 13.2368 -21.3607
3 28.1613 12.467 -21.4888
3 27.9773 13.9336 -20.7948
2 33.4007 14.7441 -21.5172
3 32.819 15.0024 -20.7456
3 33.4956 13.749 -21.5442
3 27.5245 19.5547 -21.3194
3 32.8424 17.5624 -21.5378
3 25.9743 9.62649 -19.5181
2 27.5609 10.0925 -19.2482
3 28.1681 9.30193 -19.1685
3 27.5324 10.5798 -18.3751
2 33.0903 12.6439 -19.0241
3 33.1061 13.6435 -19.0476
3 33.1842 12.2868 -19.9531
2 28.5378 15.1346 -19.5331
3 27.7958 14.894 -18.907
3 28.6042 16.1298 -19.604
2 31.4037 15.1017 -19.395
3 31.6149 16.0557 -19.1822
3 30.4119 14.9817 -19.4386
3 29.4777 17.9188 -19.0137
3 31.6294 18.5419 -19.1326
3 26.1124 14.8568 -16.916
3 30.7928 14.6717 -17.5488
3 0.685397 11.8317 -21.1839
2 36.3424 12.2244 -21.4856
3 37.2479 11.8978 -21.2141
3 36.3959 13.1934 -21.7262
2 38.9686 11.5283 -21.0125
3 39.296 10.7089 -21.4827
3 39.214 11.4771 -20.044
3 41.3846 14.5921 -20.9522
2 36.2049 15.3425 -21.1257
3 35.2279 15.2395 -21.312
3 36.4836 16.2834 -21.3176
2 39.9588 14.1507 -21.5651
3 39.339 14.58 -22.2216
3 39.6546 13.2159 -21.3812
3 36.2369 18.3981 -20.1275
3 42.339 11.6242 -18.1363
2 37.0246 11.598 -17.908
3 36.2512 11.5628 -17.2747
3 37.103 12.5198 -18.2872
2 39.622 11.5024 -18.1055
3 38.6441 11.4396 -17.9057
3 40.0206 12.2573 -17.5844
2 0.985735 14.794 -17.5365
3 0.716789 15.2052 -18.4071
2 37.2969 14.1689 -18.6421
3 37.0888 14.7967 -17.8917
3 36.7114 14.3791 -19.4246
2 40.0374 14.6026 -18.3416
3 39.1117 14.3913 -18.655
3 40.6492 14.6697 -19.1294
3 40.8356 19.5168 -19.1732
3 1.46426 11.6405 -16.2648
3 34.0182 11.6895 -15.9216
3 39.0735 11.4591 -14.5062
3 41.5785 15.0141 -14.6972
3 39.9418 15.5741 -16.5323
3 35.0311 18.1834 -17.9715
3 0.33087 20.3979 -21.4746
3 3.56109 19.8972 -21.2232
3 2.32231 18.8336 -21.1945
2 6.87307 19.8045 -20.8402
3 7.73433 20.0931 -21.2581
2 0.804055 21.8926 -21.5368
3 1.75005 22.1063 -21.7802
2 3.74874 21.6474 -21.4387
3 4.40964 21.8254 -20.7093
3 3.62787 22.4742 -21.9878
2 9.55814 20.9808 -20.8703
3 10.4206 21.2792 -21.2788
3 9.48477 21.347 -19.9423
2 0.807594 24.683 -20.7715
3 0.799128 25.1694 -19.8974
2 3.62308 24.7678 -21.3049
3 2.69937 24.7141 -20.9253
3 3.79619 25.6974 -21.6299
2 9.99969 24.9984 -21.4991
3 10.6739 25.725 -21.6311
3 9.53502 24.8131 -22.3647
3 0.295491 18.3189 -20.1365
3 5.79113 18.1438 -18.8565
3 4.35397 18.0981 -19.6305
3 8.55282 18.2303 -18.2663
3 7.56032 18.8708 -19.3939
2 0.850388 21.8003 -18.2705
3 0.541007 21.9154 -19.2141
2 5.84643 22.0277 -19.2003
3 6.45334 21.3453 -19.6074
3 5.52696 21.7009 -18.3105
2 9.20606 21.5454 -18.2871
3 8.67103 20.9009 -17.7406
3 8.93502 22.4807 -18.0589
2 0.592646 25.7915 -18.2406
3 1.09951 26.6336 -18.4243
2 6.0653 24.5334 -19.8429
3 6.12342 23.6152 -19.4505
3 5.23821 24.6061 -20.3998
2 8.26035 24.033 -17.6874
3 7.92365 24.1999 -16.7603
3 7.76801 24.6186 -18.331
3 4.40406 17.5396 -17.2564
3 4.87493 22.0941 -16.3946
3 5.73195 24.203 -16.4698
3 7.50744 26.0015 -15.0792
2 11.9334 17.9824 -20.3798
3 11.275 18.0886 -19.6343
3 12.2328 18.8843 -20.6907
2 14.863 17.4703 -20.5014
3 14.885 17.8394 -19.5719
3 14.1641 17.9483 -21.0331
2 13.2742 20.3592 -20.1722
3 14.072 20.8796 -20.4763
3 13.1014 20.5491 -19.2053
2 17.1709 23.0219 -19.9391
3 16.583 22.7008 -19.1963
3 16.8741 23.9316 -20.2291
2 11.5573 27.1781 -21.9024
3 11.3756 28.1499 -21.7513
3 12.5256 27.0493 -22.1161
2 15.3652 25.6806 -20.0149
3 14.8812 26.2533 -20.6762
3 14.7164 25.0615 -19.5721
3 10.5609 17.3197 -17.1827
3 10.3583 16.3403 -18.4736
2 13.092 18.8623 -16.4291
3 12.4023 18.2068 -16.121
3 12.7117 19.4269 -17.1612
2 11.9131 21.0241 -17.8209
3 10.9315 21.1214 -17.9849
3 12.2093 21.71 -17.1559
2 15.6993 21.5967 -18.1061
3 16.117 20.8356 -17.6094
3 15.0861 22.0968 -17.4943
2 10.9827 24.8802 -18.8347
3 10.1927 25.0178 -18.2368
3 10.6696 24.7374 -19.7733
2 13.4977 23.9783 -18.9337
3 13.8705 23.6818 -18.054
3 12.5284 24.1997 -18.8267
3 9.43977 21.0627 -15.4151
2 17.1657 16.1015 -21.3964
3 17.5248 16.7651 -22.0523
3 16.2679 16.4026 -21.0749
2 22.7876 20.3499 -21.7638
3 22.2135 20.8676 -21.129
2 25.5432 20.2091 -20.8382
3 25.7384 21.1718 -20.6506
2 18.9413 21.1666 -18.9133
3 18.4421 20.7827 -18.1362
3 18.3733 21.8522 -19.3683
2 21.3924 22.0932 -19.9063
3 21.335 23.0792 -20.0631
3 20.5128 21.7577 -19.5687
2 25.3623 23.1227 -20.8243
3 25.114 23.0731 -19.8565
3 24.9474 23.9353 -21.2332
2 17.127 27.7316 -19.5433
3 17.2637 28.1531 -20.4394
3 16.5135 26.9471 -19.6335
2 21.4652 24.9228 -20.2117
3 21.6834 25.3964 -19.358
3 20.4853 25.0013 -20.395
2 24.0627 25.6551 -21.2302
3 23.3059 25.093 -20.8961
2 18.668 16.0379 -17.5942
3 19.219 15.2302 -17.8035
3 21.4694 18.8142 -17.2486
3 22.8239 19.6332 -17.6505
2 24.6949 17.8044 -19.4491
3 23.853 18.0842 -18.9872
2 17.0002 19.944 -16.1137
3 17.1896 19.2298 -15.4395
3 17.3774 20.8129 -15.793
2 22.7158 21.6356 -17.5583
3 22.419 21.717 -18.5094
3 21.9491 21.844 -16.9507
2 25.0781 22.7412 -17.9944
3 24.3124 22.1328 -17.7854
2 16.2214 25.6367 -16.2415
3 16.3047 25.4517 -17.2203
3 15.2598 25.7865 -16.0109
2 21.95 26.6332 -18.1155
3 22.95 26.6296 -18.1208
3 21.6195 27.5722 -18.2106
2 24.8547 26.7713 -17.9474
3 25.0881 27.7418 -17.8869
3 23.3035 17.936 -16.526
3 20.1925 22.9332 -15.7876
3 18.3617 25.072 -15.8304
3 21.0874 26.2265 -16.2773
3 25.1892 25.6068 -16.6712
2 28.416 19.9977 -21.2249
3 28.3068 20.9881 -21.3091
2 32.9279 18.5532 -21.4327
3 32.0429 18.9381 -21.1705
2 27.8027 22.6458 -21.8309
3 28.021 23.4011 -22.4486
3 26.853 22.7265 -21.5281
2 30.825 20.0624 -20.3284
3 30.9941 20.8802 -19.778
3 29.9259 20.1316 -20.7605
3 23.7311 26.5777 -21.4267
2 26.547 26.3561 -20.9159
3 25.6137 26.1203 -21.1864
3 26.7369 27.3056 -21.1654
2 31.4951 27.605 -21.435
3 30.6902 27.315 -21.9522
3 31.9304 28.3759 -21.8996
3 25.0753 18.5824 -19.9487
2 28.7527 17.6583 -19.6516
3 28.7303 18.3056 -20.4131
2 31.4491 17.8206 -18.4644
3 31.7743 18.1112 -17.5642
3 25.3028 23.2837 -17.1846
2 29.3453 23.4256 -19.3491
3 28.8176 24.237 -19.0972
3 28.9258 22.9887 -20.1444
2 31.7196 22.3959 -18.5088
3 31.8775 22.2856 -17.5271
3 30.8845 22.9264 -18.6541
3 24.903 26.4753 -18.901
2 27.7406 25.4643 -18.5149
3 27.4736 26.1549 -17.8424
3 27.3094 25.6699 -19.393
2 30.6005 27.247 -18.8173
3 29.6795 26.9238 -18.5995
3 30.7169 27.2785 -19.8097
3 26.2783 23.5474 -15.7423
3 31.71 26.3296 -17.9453
3 41.6194 19.4467 -21.6796
2 36.7334 18.0436 -20.9203
3 36.8024 18.7576 -21.6167
2 39.617 20.0303 -21.6597
3 39.0563 20.848 -21.7891
3 39.0333 19.2186 -21.6836
3 0.245427 22.7185 -21.6128
2 35.4316 23.5025 -21.7538
3 35.1648 23.2441 -22.6819
3 34.7699 24.1561 -21.3862
2 37.8982 22.055 -21.5444
3 38.4266 22.4047 -20.7704
3 37.0257 22.5406 -21.5985
3 42.5398 24.8334 -21.2447
2 33.2654 25.1904 -20.9278
3 33.7674 25.3793 -20.0834
3 32.7672 26.0103 -21.2095
2 40.9626 23.7011 -21.9031
3 40.3615 23.3272 -22.609
3 40.5938 23.4801 -20.9999
2 0.53302 17.5101 -19.599
2 34.8125 19.3783 -19.2627
3 34.1182 19.0937 -19.9234
3 34.7466 20.3651 -19.1139
2 40.9904 19.8854 -18.257
3 41.8384 20.4154 -18.2494
3 1.32713 22.6273 -17.9724
2 34.5006 22.0945 -19.2055
3 34.9179 22.3969 -20.0622
3 33.5395 22.37 -19.187
2 39.6194 23.1113 -19.4838
3 39.8654 23.8544 -18.8611
3 39.3654 22.3026 -18.9529
3 1.15475 25.1789 -17.6845
2 34.5686 25.5632 -18.4199
3 35.0065 24.6923 -18.1963
3 35.2673 26.2717 -18.5193
2 40.4753 26.6399 -19.1678
3 39.7288 26.0839 -18.8021
3 41.3446 26.3197 -18.7908
3 40.9191 18.8045 -16.7672
3 0.724691 28.6008 -22.2384
2 3.52171 28.5693 -21.8895
3 3.9394 28.3937 -20.9977
3 3.76838 29.488 -22.1977
2 8.14622 26.5263 -19.8457
3 8.86583 26.0426 -20.3435
3 7.2861 26.0234 -19.9303
2 1.35653 31.8563 -20.5899
2 4.14571 31.4264 -20.8852
3 4.68658 32.1365 -21.3357
3 3.18168 31.5382 -21.126
2 9.61535 33.6065 -21.0403
3 10.1184 34.3526 -20.6037
3 8.78488 33.9677 -21.4641
3 8.26256 36.0244 -22.2108
2 1.34916 28.1668 -19.1435
3 2.32185 28.2488 -19.3603
2 4.16948 28.0684 -19.1107
3 3.97692 27.6237 -18.2356
3 5.0481 28.5429 -19.0567
2 8.20695 27.3397 -17.2618
3 8.95777 27.9686 -17.0593
3 8.03756 27.3286 -18.2469
3 1.85041 33.1806 -17.8557
2 5.70477 30.456 -18.6883
3 6.54133 30.9989 -18.614
3 5.11581 30.8459 -19.3958
2 8.11938 32.1573 -18.9371
3 8.2109 33.15 -19.0159
3 8.94066 31.7169 -19.2995
3 4.34105 30.763 -17.4913
3 9.29191 30.7559 -16.204
2 12.581 29.4114 -20.4363
3 12.0428 29.1134 -19.6475
3 12.4014 30.3786 -20.6157
2 14.4559 27.8845 -21.4577
3 15.2283 28.3836 -21.8501
3 13.7847 28.535 -21.102
2 11.9693 32.1342 -20.5329
3 11.6445 32.1342 -19.5868
3 11.3086 32.6115 -21.1119
2 14.455 33.5777 -20.4759
3 14.487 34.2846 -21.1821
3 13.641 33.0119 -20.6067
2 10.1493 29.1228 -16.387
3 10.3611 29.1058 -15.4095
3 10.8223 28.5746 -16.8832
2 11.5848 27.7445 -18.1948
3 12.5024 27.6768 -17.8027
3 11.4639 27.0314 -18.885
2 11.0735 32.0058 -18.1101
3 10.5453 31.7102 -17.3137
3 11.356 32.9572 -17.9877
2 14.9415 31.1153 -16.4734
3 15.907 31.0416 -16.223
3 14.8506 31.0726 -17.4679
3 11.2679 30.1289 -13.7967
2 17.1219 29.2481 -21.5778
3 16.6597 30.0906 -21.3009
3 17.9524 29.4751 -22.0862
2 20.9731 29.793 -20.689
3 20.8587 30.7848 -20.6301
3 20.9501 29.4001 -19.7693
2 23.2819 28.3298 -21.042
3 22.3525 28.6239 -21.2646
2 16.405 31.5672 -20.5923
3 17.3057 31.971 -20.4316
3 15.7116 32.2877 -20.5904
2 21.3098 32.4769 -20.2375
3 21.748 32.5684 -19.3429
3 21.7778 33.0623 -20.8991
2 26.4618 32.0556 -21.7014
3 27.4085 32.3741 -21.7485
3 25.8529 32.8382 -21.5713
2 18.1896 29.8684 -18.1278
3 17.8451 30.6969 -18.5689
3 17.7754 29.0655 -18.556
2 20.8924 29.1516 -18.0461
3 19.9281 29.2848 -17.8168
3 21.4236 29.9331 -17.7186
2 24.0748 29.6625 -18.4311
3 24.8769 30.2163 -18.6539
2 18.6831 32.7834 -19.4743
3 18.4935 33.6903 -19.0977
3 19.6686 32.6146 -19.4562
2 21.248 33.4818 -17.4265
3 21.1037 34.3521 -17.897
3 20.428 33.2448 -16.9051
2 26.0158 31.3823 -18.8047
3 26.2384 31.8382 -19.6661
3 25.7377 32.0648 -18.1284
3 20.0165 36.0194 -18.8475
3 23.6566 28.9216 -20.328
2 26.2351 29.118 -21.2847
3 26.4308 30.0956 -21.3614
3 25.2515 28.9663 -21.382
2 32.3667 30.5281 -21.1833
3 31.6302 30.3108 -20.5424
3 32.5792 31.5038 -21.128
2 29.1422 32.9308 -21.4211
3 29.9688 32.3703 -21.3703
3 29.2111 33.6858 -20.7686
2 32.844 33.155 -20.927
3 32.1534 33.7504 -20.5162
3 33.7435 33.585 -20.8489
3 23.4693 30.1809 -17.8269
2 27.8461 28.6007 -18.9315
3 27.3147 29.065 -18.2226
3 27.3595 28.6564 -19.803
2 30.5873 29.9925 -19.1109
3 30.7252 29.028 -18.8854
3 29.6092 30.2007 -19.0997
2 30.3088 33.6601 -17.0676
3 31.1577 33.1426 -17.1745
3 29.982 33.9544 -17.9654
2 32.2391 31.8587 -17.7809
3 33.1403 31.9291 -18.2083
3 31.6519 31.2693 -18.3354
3 31.9881 36.4565 -16.7442
3 28.725 32.7091 -16.4742
3 31.3243 30.6196 -16.3309
2 0.223422 29.1639 -21.5818
3 0.739177 30.0007 -21.3977
2 35.1075 29.5461 -20.365
3 34.2842 29.6988 -20.9113
3 35.9121 29.5792 -20.9575
2 40.3781 30.5772 -21.5187
3 40.583 31.193 -22.2791
3 41.1138 29.9063 -21.4251
3 1.15856 32.8026 -20.8452
3 1.41095 31.7845 -19.5936
2 34.9434 31.3667 -18.519
3 35.1071 32.1369 -19.1352
3 35.0484 30.5089 -19.0217
2 38.1634 34.3762 -21.3144
3 37.6999 34.0083 -22.1201
3 38.5645 33.6258 -20.7886
3 0.68918 34.4171 -19.5789
3 0.807554 28.5618 -19.8852
2 36.9024 28.3538 -18.173
3 37.7808 28.6428 -18.5533
3 36.1737 28.5522 -18.8281
2 38.9459 28.7366 -19.9996
3 39.3689 27.8413 -19.8591
3 39.5069 29.2754 -20.6277
2 1.60013 32.2156 -17.7776
3 0.756553 32.1322 -17.2467
2 36.1202 32.8184 -16.643
3 35.864 32.2791 -17.4448
3 36.0449 33.7921 -16.8577
2 38.8893 32.136 -19.8707
3 38.9943 32.0106 -18.8838
3 39.4025 31.4264 -20.3531
3 0.850469 28.9932 -17.2672
3 37.4791 27.6881 -16.1061
3 34.8236 30.6189 -16.1624
3 38.5543 31.4906 -16.285
2 0.536471 1.41212 -20.5905
2 3.74818 0.739262 -20.7081
3 2.92608 1.29261 -20.8417
2 6.7271 3.13865 -21.3196
3 1.60495 35.2675 -20.6299
2 5.36129 33.8057 -21.4309
3 5.28797 34.1024 -20.4784
3 6.21047 34.1572 -21.8247
2 7.44202 35.5833 -21.8476
3 6.80759 36.2814 -21.5154
3 0.324983 39.0294 -21.7652
3 0.927743 39.983 -20.5846
2 3.95261 39.7797 -21.993
3 4.0557 40.772 -21.9241
3 2.98049 39.5465 -22.0177
2 6.11576 37.9898 -21.5868
3 6.42521 38.8142 -21.1125
3 5.21418 38.1539 -21.9867
3 0.176331 41.9937 -21.9142
2 4.59099 42.466 -21.0036
3 4.31299 42.3564 -20.0489
3 4.43015 43.4102 -21.2909
2 6.81961 41.1051 -21.6541
3 6.06769 41.7418 -21.4827
3 6.61295 40.555 -22.4629
3 0.13679 1.30692 -18.8237
2 5.22829 2.03833 -19.1937
2 8.43312 0.908127 -20.9517
3 7.72234 1.59757 -21.0908
3 1.69122 34.9367 -16.8383
2 4.44218 35.113 -18.3224
3 4.9129 34.8362 -17.4843
3 3.46661 35.2269 -18.1341
2 8.55594 34.8496 -18.4887
3 7.87696 35.5565 -18.6866
3 9.4205 35.0839 -18.933
3 0.346018 41.0397 -18.7102
2 3.89613 39.8883 -19.2082
3 3.51801 40.7963 -19.0277
3 3.96663 39.7465 -20.1952
2 6.47374 37.0772 -18.7522
3 6.12676 37.6794 -19.4709
3 5.75642 36.436 -18.4791
2 0.423884 42.8152 -18.9111
3 0.0912632 43.5947 -18.38
2 3.12201 42.525 -18.5561
3 3.40478 43.3223 -18.0224
3 2.12872 42.5362 -18.6708
2 9.14702 42.4564 -21.1974
3 8.95351 43.4319 -21.0918
3 8.29604 41.9662 -21.3856
3 5.22755 0.528509 -18.2291
3 8.49041 1.27067 -18.1236
3 8.81092 34.5877 -16.8076
3 4.48907 39.8856 -17.7339
3 3.65029 42.1307 -15.3159
3 6.44796 42.8433 -16.9065
3 8.61935 41.682 -19.5607
2 11.6885 0.648318 -20.76
3 11.111 0.335315 -21.5137
2 14.9912 1.63464 -20.4645
3 15.396 2.10164 -21.2503
2 10.9905 35.5945 -19.7689
3 11.605 35.2259 -19.0709
3 11.4002 36.4106 -20.176
2 14.2681 36.0591 -21.7271
3 14.9845 36.7508 -21.6356
3 13.3756 36.4803 -21.5654
2 12.2003 38.0842 -21.2003
3 11.9192 38.4954 -20.3328
3 12.5476 38.7967 -21.8097
2 15.05 39.5246 -20.1743
3 15.8593 39.2626 -20.6997
3 14.4114 40.0149 -20.7672
2 13.2477 40.8425 -21.4782
3 12.5475 41.0663 -20.7998
3 13.7594 41.6687 -21.7136
2 14.5792 43.4534 -21.8
3 15.4422 43.0161 -22.0524
3 14.7676 0.0247311 -21.2949
2 10.3773 2.55006 -19.4585
3 15.1474 43.5161 -18.5797
2 11.9679 34.6142 -17.5914
3 12.9532 34.54 -17.7449
3 11.8004 34.996 -16.6821
2 14.4798 35.0439 -18.1948
3 14.4689 36.0153 -18.4315
3 14.7801 34.5111 -18.9856
2 11.3777 38.9979 -18.8176
3 10.5286 38.6869 -18.3903
3 11.253 39.9251 -19.1704
2 13.9096 37.9672 -18.2963
3 12.9298 38.1381 -18.1918
3 14.2382 38.4094 -19.1305
2 11.5077 41.5126 -19.7563
3 11.7767 42.0674 -18.9686
3 10.6361 41.8455 -20.116
2 15.5913 41.9747 -18.9157
3 16.4443 42.312 -19.3136
3 15.5002 40.9965 -19.1018
3 14.707 37.9945 -16.9404
3 15.6035 42.0942 -17.2222
2 18.7103 1.46605 -21.5193
3 18.1227 1.53241 -20.7125
2 21.4047 0.299568 -20.6493
3 21.341 0.284046 -19.6511
3 27.0664 44.1153 -20.0814
2 16.8719 36.772 -21.6883
3 17.1541 37.7285 -21.615
3 17.1205 36.419 -22.5899
2 22.6152 34.7927 -20.4894
3 22.4657 35.6896 -20.9051
3 22.0318 34.698 -19.6823
2 25.7641 34.8334 -20.8513
3 25.461 35.442 -21.5843
2 17.5081 39.3729 -21.4901
3 18.46 39.1409 -21.2896
3 17.4556 40.3192 -21.8086
2 22.1434 37.223 -21.8564
3 21.2876 37.688 -21.6296
3 22.297 37.2696 -22.8431
2 23.6431 39.7292 -21.5151
3 24.3893 39.5907 -20.8637
2 17.4322 42.6633 -21.7885
3 17.6871 42.8832 -20.8465
3 17.8579 43.32 -22.4107
2 21.1689 41.7636 -21.3972
3 22.0752 41.3599 -21.5219
3 21.2644 42.6934 -21.0414
2 26.3225 42.6327 -20.1768
3 26.2933 42.7118 -19.18
3 25.5376 42.0992 -20.4916
3 17.5663 1.66077 -17.8263
2 20.6933 1.28603 -18.1672
3 19.8943 1.67492 -18.6254
2 25.9453 1.7162 -17.596
2 18.4857 36.19 -19.506
3 18.2285 35.8696 -18.594
3 17.7377 36.0118 -20.145
2 20.9281 35.9916 -18.4376
3 21.3869 36.8678 -18.585
2 24.952 36.2721 -18.6595
3 25.0383 35.4601 -19.2364
2 19.9247 38.2175 -20.9662
3 19.5018 37.6043 -20.2986
3 20.1857 39.0713 -20.5153
2 22.042 38.4359 -18.7193
3 22.7766 38.7868 -18.1382
3 21.2905 39.0953 -18.7407
2 25.5955 39.0452 -19.2724
3 26.5706 39.2333 -19.1546
2 17.8453 43.2391 -19.0796
3 17.6813 44.2028 -18.8684
3 18.4239 42.8365 -18.3699
2 20.1083 40.5702 -19.1579
3 20.2856 41.1298 -19.9671
3 20.0484 41.1593 -18.3517
2 25.8811 43.2353 -17.4899
3 25.679 44.2057 -17.3577
3 19.151 42.7609 -16.4775
3 24.4788 42.4572 -16.7153
3 30.074 1.33867 -19.2677
3 34.6551 2.01927 -21.0302
3 26.736 34.986 -20.6715
2 29.1313 34.8298 -19.3994
3 28.6853 35.4983 -18.804
3 29.9418 35.2422 -19.8151
2 31.5943 35.9526 -20.2288
3 31.8129 36.1237 -19.2677
3 31.5533 36.8219 -20.7209
3 22.9994 38.9665 -21.4512
2 29.6052 40.3185 -20.8497
3 29.7343 41.3098 -20.824
3 28.6319 40.1068 -20.7605
2 31.6346 38.5886 -21.2859
3 31.851 38.8544 -22.2249
3 30.7763 39.0192 -21.0066
2 30.4134 42.8203 -20.725
3 31.2448 42.7051 -21.2681
3 30.2214 43.7952 -20.6118
2 32.9682 42.6718 -21.7723
3 33.7381 42.0534 -21.6147
3 33.2802 43.6188 -21.6948
2 30.4996 1.72165 -17.7013
2 32.5782 0.0180201 -18.396
3 24.7768 37.072 -19.2331
2 27.6762 36.7216 -18.048
3 27.9013 37.6827 -17.8875
3 26.6828 36.6067 -18.0433
2 32.4201 36.6932 -17.6149
3 32.6994 37.6532 -17.5978
3 25.169 38.9246 -18.3757
2 27.9294 39.744 -17.7527
3 28.3569 39.6511 -16.8531
3 27.8679 40.7125 -17.9936
2 32.8912 39.2308 -18.5558
3 32.5181 40.1157 -18.2767
3 32.8447 39.1481 -19.5509
3 26.7047 42.9936 -16.9764
2 28.3903 42.5594 -17.0237
3 28.8787 42.7134 -16.1644
3 28.9037 42.9699 -17.7769
2 31.5773 41.6175 -18.2943
3 32.1507 42.433 -18.216
3 31.0209 41.6791 -19.1226
3 31.8617 38.4227 -15.1305
3 31.7237 41.5019 -16.4974
3 0.121304 0.652899 -21.0914
2 36.3105 43.7404 -21.6119
3 35.996 42.796 -21.5154
2 38.9262 44.0292 -21.0182
2 0.855166 34.6112 -20.5461
2 35.6016 33.6113 -20.018
3 35.4281 34.1501 -19.1933
3 36.4109 33.9677 -20.4846
2 40.6548 35.6765 -21.2408
3 39.861 35.0722 -21.3087
3 41.4864 35.1267 -21.1617
2 0.997092 39.7384 -21.5521
2 37.3674 39.0897 -20.5171
3 38.0422 39.4121 -19.8529
3 37.5155 38.1173 -20.697
2 40.6841 38.5794 -21.1429
3 40.4058 38.5841 -20.1821
3 40.6149 37.65 -21.5051
2 42.2732 42.7873 -21.5722
3 41.2933 42.5882 -21.577
2 35.4068 41.0918 -21.0873
3 35.2992 41.4616 -20.1641
3 36.0529 40.3288 -21.067
2 39.7031 41.191 -21.588
3 38.7875 41.1256 -21.9844
3 40.101 40.2765 -21.5148
2 42.2927 1.04439 -17.9674
2 35.8811 0.785663 -17.4316
3 35.9435 1.7669 -17.6136
2 39.7327 0.938862 -18.5536
3 39.7778 1.93347 -18.6467
2 1.32099 34.8397 -17.7625
3 0.441045 35.3113 -17.8198
2 35.333 35.323 -17.2629
3 35.5504 36.1784 -17.7328
3 34.5905 35.48 -16.6113
2 41.2303 35.1583 -18.2623
3 41.0356 35.8334 -18.9734
3 40.4109 34.6123 -18.0874
2 0.455734 40.0485 -18.7844
3 42.1997 39.6412 -19.1024
2 35.6694 38.2103 -18.1503
3 34.8612 38.7992 -18.1399
3 36.1897 38.3726 -18.9884
2 39.6597 39.2264 -18.7242
3 39.688 38.631 -17.921
3 39.5545 40.1766 -18.4306
3 0.0311523 42.8458 -19.8299
2 35.2663 42.1302 -18.3719
3 34.6574 42.6923 -17.8116
3 35.8787 41.6088 -17.7774
2 39.1399 41.7454 -18.0129
3 39.2256 42.0944 -17.0793
3 39.071 42.5125 -18.6503
3 38.6294 38.3602 -15.8901
3 0.767552 0.89903 -15.0439
2 5.41168 44.2001 -17.4506
3 7.48152 0.564116 -17.0514
2 0.927577 3.79445 -16.0434
2 3.69318 3.50975 -15.8718
3 2.71427 3.68406 -15.9779
3 4.18914 3.91289 -16.6405
2 9.04274 3.0074 -15.444
3 8.27283 2.99187 -14.8057
3 8.92952 2.28003 -16.1205
3 1.63211 6.97784 -15.5458
3 0.922914 5.55621 -15.9234
2 3.4116 7.48722 -15.7806
3 3.69151 8.44465 -15.8507
3 3.63522 7.01109 -16.6307
2 8.08868 7.22786 -12.3742
3 8.47668 6.62439 -11.6772
3 8.75113 7.35365 -13.1123
3 3.94679 1.90831 -15.3815
2 6.55998 0.605165 -14.248
3 5.59457 0.632695 -14.507
2 1.04431 4.45917 -12.7928
3 0.79977 4.3321 -11.8312
2 4.81846 4.2924 -13.5316
3 4.54602 4.03232 -14.4576
3 4.48759 5.21506 -13.3331
2 7.36651 2.93601 -13.2724
3 6.52983 3.47674 -13.3591
3 7.17512 1.98463 -13.5134
3 42.103 7.19421 -14.3388
2 3.98227 6.86313 -13.1445
3 4.6889 7.54152 -12.943
3 3.53701 7.09224 -14.0098
2 5.88077 8.68291 -12.7237
3 6.11361 9.65535 -12.7356
3 6.7091 8.14374 -12.5711
2 3.23953 1.20612 -10.2817
3 3.70988 2.01819 -10.6268
2 7.13233 0.983521 -10.2023
3 7.86514 1.07162 -10.8767
2 0.206825 4.67115 -10.0932
3 42.6415 5.06576 -9.189
2 4.87997 3.25314 -10.9576
3 4.27045 3.85235 -10.4381
3 4.89759 3.54359 -11.9139
2 7.49571 4.0431 -9.68209
3 6.58984 4.07335 -10.1042
3 7.42851 3.61792 -8.77911
3 0.910903 8.43039 -11.357
2 2.69657 8.0538 -10.9509
3 3.18103 7.84481 -10.1011
3 3.02913 7.45571 -11.6798
2 8.53337 8.54438 -8.151
3 8.37741 9.33518 -8.74251
3 8.55463 7.71228 -8.70485
3 3.93168 0.628796 -8.67568
3 8.32768 0.357101 -8.98651
3 3.18615 5.77931 -9.12949
2 7.42516 3.03708 -7.28864
3 2.97578 8.19787 -7.83269
2 6.29694 6.95445 -7.21685
2 11.6001 1.95855 -15.3084
3 11.65 1.31256 -16.0698
2 12.5849 42.9419 -17.0073
3 13.1602 43.5318 -17.5736
2 10.0178 5.4031 -16.2699
3 10.0924 6.10272 -15.5589
2 14.8645 3.79444 -15.603
3 14.8714 3.68148 -14.6091
2 10.1163 7.35427 -14.333
3 10.5769 6.84664 -13.6045
2 13.8406 6.6364 -13.2707
3 13.6192 6.63431 -14.2455
3 12.7586 1.03065 -12.5183
3 14.6369 0.623767 -11.0999
2 9.31984 4.35508 -11.8332
3 9.23696 3.82776 -10.9872
3 8.73909 3.94797 -12.5378
2 15.4504 4.49685 -12.9202
3 14.9089 5.33045 -13.0288
3 15.5007 4.25635 -11.9505
2 11.279 6.32076 -12.152
3 10.6918 5.52741 -11.9913
3 11.4428 6.79451 -11.2863
2 15.0646 8.64874 -12.0911
3 14.9304 8.68053 -11.1003
3 14.4645 7.95344 -12.4862
2 9.47698 1.17024 -11.3618
3 16.4793 1.359 -9.88195
2 9.34481 6.1986 -9.44956
3 9.86804 5.96801 -8.62879
3 8.62708 5.51654 -9.58943
2 15.2283 4.13245 -10.2009
3 14.9116 4.60633 -9.37883
3 15.1769 3.14427 -10.0561
2 11.5408 8.16816 -10.1514
3 11.4258 9.14058 -10.354
3 10.6765 7.79317 -9.81568
2 14.0865 9.02933 -9.54451
3 14.1938 10 -9.75914
3 13.1736 8.72626 -9.8176
3 11.432 1.25958 -9.7485
3 13.0253 2.2013 -7.29982
2 11.5433 5.85854 -7.44438
3 12.6813 4.36837 -7.54265
3 15.8299 8.65236 -8.45567
2 16.6071 1.49183 -16.3763
3 15.9249 2.18042 -16.13
3 20.1797 0.188666 -15.1444
2 18.4999 3.43898 -15.5823
3 18.6517 3.32968 -14.5996
3 17.9905 2.65204 -15.9301
2 20.4851 4.9 -16.2205
3 20.3212 5.8755 -16.3669
2 24.1035 4.29335 -15.947
2 17.3698 6.39192 -16.0394
3 16.7715 6.77672 -15.3362
3 17.5342 5.42503 -15.8439
2 19.8195 7.4749 -15.7211