7961
 Atoms. Timestep: 500
3 3.66528 43.744 -20.312
3 6.52448 44.0561 -20.2988
3 5.44306 44.0268 -21.5221
2 0.444158 3.49176 -21.9603
3 0.975062 3.47161 -21.1131
2 4.96285 6.99726 -21.0486
3 4.38481 6.2753 -20.6683
3 5.64267 6.59249 -21.6601
2 7.84749 6.1727 -21.4079
3 8.24828 5.30445 -21.7003
3 8.52775 6.90034 -21.4962
2 0.603349 6.48151 -21.8569
3 1.26469 7.20898 -21.6741
2 2.6103 8.42414 -21.4391
3 2.52546 9.09562 -20.7029
3 3.44493 7.88922 -21.3077
2 6.772 9.08627 -20.0525
3 7.13141 8.58415 -19.266
3 6.21365 8.47382 -20.6121
2 42.3781 11.8313 -19.6882
3 42.2924 11.0913 -20.3554
2 5.0795 12.5892 -21.6904
3 4.77728 11.8651 -21.0705
2 7.81714 12.782 -21.0541
3 7.09223 12.3331 -21.5767
3 1.04982 0.18826 -18.2628
3 3.78357 0.0331136 -17.7692
2 7.10293 43.7824 -18.7008
3 7.23471 0.158858 -17.9503
3 1.59871 2.02517 -19.3934
2 3.44032 5.21113 -19.8524
3 3.02622 5.95091 -19.3221
3 2.82562 4.42241 -19.8607
2 6.66773 5.31038 -18.8601
3 7.03519 5.3083 -19.7902
3 5.67275 5.21636 -18.8947
2 42.1919 7.31998 -16.9916
2 2.17369 7.12387 -18.3187
3 2.19299 8.07868 -18.6153
3 1.32394 6.94614 -17.8224
2 7.70084 7.71295 -17.8988
3 7.40232 8.05144 -17.0065
3 7.52159 6.73104 -17.9598
3 1.84575 10.3356 -17.9872
3 3.15813 10.2667 -18.9564
2 4.68063 10.8392 -19.2566
3 5.37694 10.2132 -19.6077
3 42.5705 42.8699 -16.2288
3 2.22261 1.54444 -16.6718
2 6.372 1.17573 -15.9974
3 1.77055 4.22151 -16.0619
2 4.54615 3.4123 -17.2663
3 4.65537 3.27205 -18.2504
3 3.64738 3.08024 -16.98
2 7.55177 4.05197 -16.2093
3 7.34315 3.09838 -16.4265
3 7.1022 4.65079 -16.8721
2 40.568 7.40143 -14.6848
3 41.1689 7.99791 -14.1527
2 4.0324 8.18698 -15.7955
3 3.36075 7.6856 -16.3409
3 3.78632 9.15596 -15.7721
2 6.55933 8.46947 -15.5277
3 6.98564 7.91173 -14.8155
3 5.6073 8.18752 -15.6466
2 3.01395 10.6806 -15.5516
3 2.07525 10.9595 -15.3488
2 6.30534 10.9557 -14.5534
3 6.36933 10.0444 -14.9603
3 9.26793 1.41773 -22.3423
3 13.3743 4.56973 -21.423
2 9.46684 4.05125 -21.1838
3 9.17794 3.10576 -21.0335
3 9.88139 4.41004 -20.3475
2 15.1884 5.47071 -21.1452
3 16.0936 5.12331 -21.3898
3 15.1263 5.56914 -20.152
2 11.081 5.68806 -19.5119
3 10.7432 6.38668 -18.8812
3 11.7626 6.09164 -20.1223
2 12.9748 6.96797 -21.1872
3 13.7961 6.40847 -21.2982
3 13.2347 7.88599 -20.8878
3 8.86912 11.768 -20.2037
3 8.728 10.2362 -19.656
2 13.7278 9.35421 -19.7949
3 12.8576 9.80745 -19.6016
3 14.463 10.0321 -19.799
3 11.5015 0.939239 -19.8681
2 14.5135 1.81264 -21.707
3 13.8937 2.59562 -21.6548
2 11.4968 3.55093 -17.8529
3 11.1665 3.78806 -16.9393
3 11.2857 4.29468 -18.4871
2 13.8711 4.99823 -17.2821
3 13.9414 5.96645 -17.5221
3 12.9478 4.67112 -17.4834
2 10.5994 7.91972 -17.9356
3 11.0059 8.71888 -18.3784
3 9.60425 7.95846 -18.0264
2 14.2756 7.56578 -17.8024
3 14.2096 7.93223 -16.8743
3 13.9696 8.25757 -18.4565
2 11.5442 10.4595 -18.424
3 10.6533 10.8178 -18.703
2 13.4994 12.3368 -18.2893
3 14.4745 12.2 -18.1146
2 10.6927 0.708229 -16.7661
3 13.4043 1.46055 -15.0714
2 10.1529 3.46993 -15.409
3 10.2613 3.99624 -14.5657
3 9.24625 3.6412 -15.7946
2 14.4836 3.0061 -15.2368
3 14.3739 3.63866 -14.4701
3 14.3208 3.49184 -16.0956
2 11.2699 7.98865 -15.1397
3 11.102 7.65681 -16.0679
3 11.306 8.98799 -15.1444
2 14.1656 8.40297 -15.3137
3 14.7505 8.96187 -14.7259
3 13.2298 8.41557 -14.9615
2 11.6873 10.6239 -15.5538
3 11.5997 10.642 -16.5498
2 14.1922 12.2056 -14.9763
3 15.1022 11.8832 -15.2373
3 19.373 1.54323 -21.9432
3 21.1087 -0.0459607 -21.6616
2 26.3997 1.65221 -21.1068
3 27.1515 1.07159 -21.4195
2 17.7608 4.53716 -20.9696
3 18.2828 3.73466 -21.2586
3 18.3909 5.27285 -20.7211
2 22.3435 3.53424 -21.6253
3 22.1381 3.98396 -22.4946
3 22.0167 2.58958 -21.6534
2 24.9004 3.95267 -21.4113
3 23.9501 3.64114 -21.4171
2 18.0986 8.43498 -20.4434
3 17.7301 7.84966 -19.7212
3 17.345 8.86141 -20.9438
2 20.6693 8.94214 -20.3494
3 20.7991 9.93358 -20.363
3 19.7026 8.73059 -20.4933
2 25.6086 6.57122 -21.6055
3 25.3328 5.61404 -21.6934
2 16.1985 10.9044 -20.3559
3 16.1171 11.815 -20.761
3 16.6728 10.9712 -19.478
2 21.7457 11.3463 -19.8633
3 22.6205 11.0445 -20.2424
3 21.7291 12.3452 -19.8177
2 24.5852 11.042 -20.8172
3 24.9562 11.9595 -20.6741
3 16.4993 2.68956 -19.1979
3 21.9657 0.836882 -18.2073
3 21.8008 2.29786 -18.9179
2 16.5151 4.08349 -18.2274
3 17.1777 4.81574 -18.3849
3 15.6861 4.46617 -17.8196
2 20.744 4.22995 -19.5902
3 21.3592 3.95624 -20.3295
3 20.9273 5.18032 -19.3387
2 25.4811 3.94436 -18.5629
3 25.1531 4.09401 -19.4957
2 16.9574 6.96273 -18.3753
3 17.5486 6.86458 -17.5747
3 16.0956 7.39054 -18.1027
2 21.6652 6.52511 -19.0802
3 22.6601 6.55455 -19.1762
3 21.2731 7.38467 -19.408
2 24.2872 6.83941 -18.8433
3 24.9213 6.473 -18.1624
3 24.2235 7.83196 -18.7394
2 17.3397 11.8068 -18.1111
3 16.9232 11.3498 -17.3252
3 18.3278 11.6533 -18.1008
2 20.1103 11.7902 -17.762
3 20.8397 11.5721 -18.4105
3 24.4834 10.2344 -19.3453
2 16.4079 1.13187 -16.5877
3 16.3898 1.48925 -17.5215
3 20.1852 0.661982 -15.6663
3 20.1067 1.50312 -17.0637
2 18.2211 4.16162 -15.6633
3 18.497 5.08661 -15.9247
3 17.4496 3.87141 -16.2295
2 19.2212 2.64336 -18.0634
3 18.254 2.8664 -18.1846
3 19.7808 3.30291 -18.5653
2 24.7122 3.20573 -15.7924
3 24.6164 3.71191 -16.6495
2 18.4974 6.85011 -15.974
3 18.2939 7.35034 -15.1323
3 19.4867 6.82941 -16.1186
2 21.1748 6.92263 -16.2893
3 20.9615 7.88697 -16.446
3 21.5645 6.52795 -17.1214
2 25.9593 6.893 -16.6309
3 25.4004 7.08588 -15.8244
2 16.4294 10.9093 -15.6369
3 16.5515 9.94028 -15.8514
3 17.0372 11.1633 -14.8845
2 20.8727 9.68043 -16.1246
3 20.4253 10.34 -16.7287
2 23.3615 10.5448 -16.2389
3 23.6898 10.2157 -17.1243
2 29.1242 0.776993 -21.2281
3 29.2914 1.75968 -21.1482
2 33.8323 44.2189 -20.892
3 33.3088 0.191172 -20.0754
3 25.5108 3.16091 -21.4324
2 28.8686 3.23551 -20.6624
3 29.056 3.71209 -19.8035
3 27.9161 2.93126 -20.6737
2 33.0426 2.52622 -21.8311
3 33.2791 2.90688 -20.9372
3 32.0738 2.68997 -22.0174
3 25.347 6.91191 -20.7024
2 28.4208 6.80278 -21.1833
3 29.0162 6.12029 -21.6072
3 27.4778 6.65313 -21.4805
2 31.9885 8.7525 -19.8422
3 32.4375 7.85917 -19.8223
3 31.0054 8.63459 -19.7025
2 28.8998 12.6072 -21.7104
3 28.7228 13.4821 -21.2597
3 28.5897 12.6526 -22.66
2 31.5885 12.7288 -21.6199
3 32.0673 11.8947 -21.8939
3 30.6048 12.5522 -21.5852
3 25.3787 2.1925 -18.3748
2 30.027 0.0308617 -18.8732
3 30.9591 0.392542 -18.8554
3 32.8504 2.16582 -18.9
3 26.445 4.20385 -18.5028
2 28.1584 5.05901 -18.6365
3 28.4095 5.8854 -19.1405
3 28.4509 5.14746 -17.6844
2 34.0669 3.51552 -19.4554
3 34.9473 3.5604 -19.9275
3 33.7648 4.44049 -19.2248
2 29.2177 8.73597 -19.4845
3 28.9263 7.90907 -19.9655
3 28.9156 9.54177 -19.9939
2 33.3115 6.49337 -19.2519
3 33.1584 6.60892 -18.2705
3 34.2281 6.81696 -19.4867
3 25.5601 9.50195 -18.36
3 28.0824 11.3324 -18.9851
3 28.0818 11.9029 -20.5152
2 31.2409 12.4788 -18.915
3 31.2977 12.3174 -19.9003
3 23.424 2.34975 -15.1211
3 30.0781 0.879724 -16.0149
3 29.3242 0.059326 -17.2087
3 32.1121 2.50694 -16.3211
3 25.4263 2.51294 -15.8924
2 28.2333 5.55192 -16.0428
3 28.2179 4.76269 -15.4289
3 27.3053 5.90854 -16.1506
2 33.0378 4.17475 -16.788
3 33.9733 3.97549 -17.0798
3 32.8394 5.14257 -16.9427
3 26.1207 7.74131 -17.1352
2 27.0723 9.14343 -17.6756
3 27.7786 9.02021 -18.3728
3 27.4931 9.46827 -16.8286
2 33.1171 6.99241 -16.6115
3 33.6536 7.79984 -16.857
3 32.6597 7.1497 -15.7363
2 28.8128 12.0299 -15.0021
3 29.381 12.7127 -14.5428
2 32.6846 10.9541 -16.6562
3 32.1182 11.1017 -17.467
3 1.16805 1.58183 -22.0537
3 35.3951 43.9016 -20.0287
3 39.4428 0.83087 -20.3304
3 37.8559 0.71142 -20.6964
3 0.645933 4.33405 -22.4602
2 36.6939 2.96249 -20.9957
3 36.0811 2.79036 -21.767
3 37.5085 2.38903 -21.0827
2 40.4803 3.41066 -21.1507
3 41.4058 3.34065 -21.523
3 39.8892 2.73987 -21.5987
3 42.3062 6.75098 -21.5069
2 33.3341 10.3601 -21.4623
3 33.8666 9.66871 -21.9506
3 32.829 9.92623 -20.7162
2 40.6413 7.2747 -20.9721
3 40.2596 7.60576 -20.1092
3 40.2928 6.35644 -21.1602
2 35.3126 11.9933 -20.4819
3 34.4768 11.5016 -20.7261
2 42.0262 9.8288 -21.4741
3 41.4542 9.01186 -21.4011
3 42.5279 0.27426 -19.4462
3 37.2634 0.686936 -18.3141
3 40.2681 0.44116 -18.3301
2 1.77729 2.99323 -19.5694
3 1.5909 3.52242 -18.7416
2 37.4465 5.08209 -19.2581
3 36.9955 4.4566 -19.8948
3 38.3377 4.7094 -18.9997
2 39.9107 4.28144 -18.6055
3 40.073 3.98039 -19.5452
3 40.6002 3.8796 -18.003
3 41.4061 7.32437 -17.61
3 41.8905 7.07075 -16.0712
2 35.8176 7.31739 -19.3403
3 36.2743 8.15205 -19.0325
3 36.4963 6.59443 -19.4697
2 39.5035 7.09761 -18.196
3 39.3779 6.10727 -18.1372
3 39.2619 7.51671 -17.3207
2 42.1267 10.3411 -16.9968
3 41.9607 9.38523 -16.7545
2 36.6692 10.0741 -18.6286
3 37.6423 10.1135 -18.4018
3 36.4275 10.8601 -19.1976
2 39.2638 10.9773 -18.1743
3 39.7123 11.4007 -18.9614
3 39.9555 10.5884 -17.5658
2 36.8918 2.27551 -15.7215
3 39.9012 -0.0311414 -15.2387
3 39.3145 0.273893 -16.7318
2 1.40523 3.50784 -16.6596
3 0.406694 3.50665 -16.6055
2 36.0533 4.6153 -16.7848
3 36.467 5.12635 -17.5382
3 35.8144 5.24559 -16.0461
2 41.2591 2.92895 -16.6249
3 40.9093 3.45801 -15.8517
3 40.9272 1.98772 -16.5621
3 39.9492 7.95936 -15.2378
2 35.9054 6.7559 -15.0455
3 36.1481 6.95001 -14.095
3 35.2027 7.39975 -15.3483
2 38.1748 8.27458 -15.9613
3 37.43 7.67278 -15.673
3 38.1039 9.14749 -15.4786
3 0.143761 12.1724 -14.3533
2 34.7681 9.04187 -16.9038
3 35.5312 9.20845 -17.5282
2 38.0231 10.5993 -14.8088
3 37.7401 11.3575 -15.3962
3 4.74389 13.4717 -21.3608
3 7.53929 13.717 -20.834
2 39.8819 12.6072 -20.7156
3 39.7115 12.1421 -21.5843
2 4.00217 14.8828 -20.6054
3 3.69606 15.6733 -21.136
3 3.88456 15.0703 -19.6302
2 6.74926 15.209 -20.5122
3 5.76092 15.1283 -20.383
3 6.97015 16.1324 -20.826
2 1.74226 18.219 -21.2733
3 0.944649 17.6938 -20.9767
2 4.51032 17.7491 -21.327
3 4.26671 17.7875 -20.3579
3 3.87054 18.3086 -21.854
2 7.33165 17.6055 -21.3563
3 6.37508 17.7247 -21.6224
3 7.67086 18.4511 -20.9442
2 1.3242 20.8495 -21.6245
3 1.93949 21.604 -21.8528
2 4.00689 23.0762 -21.8022
3 4.90303 23.0146 -22.2416
2 8.20306 19.5474 -19.6507
3 9.15663 19.7097 -19.9044
3 7.70939 20.4169 -19.6363
3 8.30886 22.8446 -16.4131
3 8.90415 22.1726 -17.7772
2 8.34389 22.0112 -16.9648
3 3.29649 20.8356 -16.8231
2 2.4846 20.7971 -17.4057
2 41.6089 20.5715 -13.665
3 42.3763 10.8546 -16.1758
2 2.28012 9.84012 -18.7394
3 5.07972 11.4156 -18.5435
3 1.96831 14.8482 -18.924
3 0.779718 13.9247 -19.5573
2 3.71321 15.479 -18.0915
3 3.71593 15.2235 -17.1247
3 3.66069 16.4743 -18.173
2 6.70752 12.6349 -18.3021
3 7.62675 12.2767 -18.4655
3 6.69912 13.6206 -18.4706
3 0.0832444 15.871 -19.7881
2 3.62999 18.2472 -18.7975
3 3.73472 18.9657 -18.1099
3 2.69886 18.2675 -19.1616
2 7.77516 17.5836 -17.6862
3 8.03566 16.6431 -17.9044
3 7.89823 18.1595 -18.4944
3 0.39266 17.2501 -18.4424
2 4.10938 22.0759 -19.3934
3 5.00946 21.6919 -19.5993
3 3.70841 22.4518 -20.2289
2 6.89431 21.9277 -19.8289
3 7.30179 21.9387 -18.9157
3 7.06827 22.802 -20.282
3 7.51499 20.7551 -16.351
3 7.26784 19.1409 -16.3559
2 7.21507 19.9733 -15.8043
3 4.40753 20.6376 -14.6399
3 5.64816 20.6211 -15.7016
2 4.69359 20.8861 -15.5653
3 1.16445 16.875 -16.3046
3 0.48007 12.8562 -15.7976
3 3.5168 11.456 -15.9336
3 5.8178 11.566 -15.1777
3 0.328976 14.408 -17.456
3 0.441954 15.0451 -15.9567
2 3.79732 14.984 -15.1043
3 3.87052 14.8068 -14.1228
3 2.92616 15.4355 -15.2974
2 4.68727 12.7703 -16.5907
3 4.59156 13.5922 -16.0292
3 5.48598 12.864 -17.1852
2 1.49179 16.3194 -15.5403
2 9.21657 11.1015 -19.5442
2 10.1089 16.6969 -21.194
3 10.4889 16.5725 -22.1106
3 9.11637 16.8019 -21.2561
2 15.795 13.5014 -21.4551
3 15.4989 13.551 -22.4089
3 16.509 14.1823 -21.2919
2 10.7114 20.3252 -19.9096
3 11.038 19.5841 -19.323
3 11.4448 20.6094 -20.5272
2 15.8343 17.6258 -21.1406
3 15.4841 18.5063 -21.46
3 15.6183 17.5132 -20.1707
3 13.2804 22.7985 -17.146
2 12.7248 21.7569 -21.52
3 12.5259 22.0511 -22.4548
3 13.5523 22.215 -21.1953
2 15.2252 22.4534 -20.7127
3 15.2197 23.3142 -20.2037
3 14.3923 23.2894 -16.0554
2 13.9115 22.4972 -16.4312
3 11.6081 25.0658 -15.569
2 12.2651 24.6793 -14.9217
3 12.1683 11.2201 -18.2454
3 13.3412 13.2823 -18.5739
2 11.2589 15.9651 -18.7121
3 11.8931 15.2971 -19.1014
3 10.6238 16.2738 -19.4202
2 13.6758 14.7533 -19.7526
3 14.3761 14.2938 -20.2989
3 13.9339 15.7098 -19.6163
2 12.0024 18.5514 -18.1525
3 11.8776 18.9119 -17.2281
3 11.8935 17.5574 -18.1402
2 14.4388 17.3085 -18.6337
3 14.9877 17.6117 -17.8547
3 13.5578 17.7814 -18.6248
2 12.606 22.8259 -18.6725
3 11.6248 22.8952 -18.8527
3 12.993 22.0814 -19.2165
2 14.5511 24.9524 -19.3955
3 13.7941 24.352 -19.1378
3 14.9907 18.9587 -15.9884
3 16.5143 18.3744 -16.0493
2 15.5448 18.1315 -16.082
3 10.7112 19.382 -14.8732
3 11.5479 18.1286 -14.2443
2 11.5328 18.8196 -14.9669
3 12.5336 11.084 -15.2852
3 14.0338 13.1111 -15.37
2 11.7608 14.6882 -16.3318
3 10.9593 14.285 -15.8903
3 11.4647 15.3013 -17.0642
2 14.3981 15.6147 -15.7505
3 13.484 15.2621 -15.9511
3 14.4322 16.5916 -15.9612
3 25.8842 22.7241 -15.992
2 26.3444 21.8522 -15.8246
3 24.453 21.4316 -15.2982
3 23.0883 20.8596 -15.989
2 23.4555 21.4022 -15.2335
3 18.2924 23.0973 -14.0224
2 17.4142 22.6247 -13.9484
3 25.3036 10.4436 -21.1719
2 19.6195 15.436 -20.9026
3 18.8683 15.1202 -20.323
3 19.4209 16.359 -21.2321
2 21.7679 14.2162 -19.8318
3 21.8842 14.5707 -18.904
3 20.8878 14.5199 -20.1967
2 25.0609 14.1799 -20.4922
3 24.1689 14.5943 -20.6731
2 18.8475 17.8238 -21.6949
3 18.9241 18.7928 -21.4599
3 17.8989 17.5278 -21.5832
2 23.8562 18.8744 -21.7184
3 23.1737 19.5645 -21.9591
3 24.3879 18.6339 -22.5304
2 26.9465 19.3859 -19.8304
3 26.5232 19.5899 -20.7131
3 26.4372 19.845 -19.1025
2 19.0761 20.6689 -20.5547
3 19.5802 20.868 -19.7143
3 18.729 21.5216 -20.9451
2 21.8932 21.0708 -21.5324
3 21.0375 20.5569 -21.5941
2 25.2098 22.9183 -19.2246
3 25.1734 21.9709 -18.9067
3 24.8916 22.9646 -20.1715
3 20.4067 12.536 -17.1654
2 24.5898 9.59651 -18.5826
2 17.5087 14.4128 -19.174
3 17.7429 14.9225 -18.3461
3 17.3024 13.4641 -18.9343
2 21.8384 14.2703 -16.8967
3 21.7604 15.1813 -16.4916
3 22.652 13.8139 -16.5365
2 25.6284 14.5437 -17.567
3 25.6497 15.5426 -17.5237
2 20.5762 17.9255 -18.9011
3 21.5403 18.1066 -19.095
3 20.1749 17.4103 -19.6585
2 23.2089 17.8172 -19.2609
3 23.9467 17.5981 -18.6225
3 23.584 17.9166 -20.1826
2 25.4778 17.3712 -17.6214
3 24.8865 17.685 -16.8785
3 25.914 18.1593 -18.0557
3 22.9924 17.7082 -15.5847
2 20.1044 21.2934 -17.9255
3 19.7022 20.827 -17.1376
3 19.8696 22.2649 -17.8933
2 22.687 20.0862 -17.566
3 22.0657 20.7038 -18.0482
2 23.9208 18.0645 -15.4788
2 25.3987 20.4311 -17.7799
3 24.4393 20.2519 -17.5623
3 20.6165 17.3983 -15.9091
3 21.4757 17.1766 -17.2799
2 21.4473 16.9985 -16.2963
3 19.2521 18.6958 -17.1216
3 18.1924 17.5067 -16.7612
2 18.4919 18.4318 -16.5279
3 21.8452 9.90158 -16.0516
3 23.6047 11.5088 -16.1306
2 17.7039 15.8552 -16.5809
3 16.7159 15.7036 -16.6119
3 18.0108 15.8584 -15.6291
2 23.7984 15.3146 -13.942
3 22.8054 15.2757 -13.8306
3 24.1254 16.2283 -13.7003
2 24.1857 13.3875 -15.8755
3 24.0461 14.0078 -15.1037
3 32.2117 21.8721 -15.6581
2 33.0999 22.201 -15.979
3 30.2716 21.3172 -16.5735
3 29.6306 21.4595 -15.0783
2 30.454 21.2242 -15.5946
3 27.2015 22.016 -15.3362
3 25.7777 14.7336 -20.916
2 28.5902 15.4383 -20.4886
3 29.2845 16.1047 -20.7603
3 28.6652 15.2601 -19.5075
2 33.0976 15.0321 -21.4277
3 32.5118 14.3054 -21.7866
3 32.9562 15.8673 -21.9591
2 30.8845 16.8478 -21.7266
3 31.7056 17.3751 -21.5077
3 30.7122 16.8925 -22.7106
2 33.1043 18.3539 -21.4482
3 32.9829 19.3408 -21.5547
3 33.816 18.1771 -20.7683
2 27.9752 23.2752 -18.9039
3 26.9886 23.2387 -19.0631
2 32.8078 21.1289 -21.5598
3 33.7269 21.4235 -21.8215
3 32.2968 21.9102 -21.2013
3 31.0655 17.9543 -15.1387
3 31.8951 18.0616 -16.5412
2 31.9579 17.826 -15.5713
3 29.0219 18.4355 -16.1038
3 29.8911 19.6429 -15.4305
2 29.4161 18.7811 -15.2523
2 27.8451 11.1243 -19.934
3 31.8809 13.203 -18.6584
3 25.6523 14.251 -18.5229
2 28.5849 15.2448 -17.6298
3 28.7664 16.2018 -17.8563
3 27.8902 15.1981 -16.912
2 33.0047 14.5684 -18.8132
3 33.846 14.0952 -18.5516
3 32.9331 14.5942 -19.8103
2 29.1889 18.161 -18.1287
3 30.1763 18.0663 -18.2556
3 28.8025 18.6763 -18.8937
2 32.0836 18.0001 -18.5054
3 32.28 17.3822 -19.2668
3 32.4527 18.9071 -18.7085
3 24.0633 18.3464 -14.53
3 25.8646 20.7828 -16.968
2 30.104 21.9629 -18.2425
3 30.8681 22.5613 -18.4834
3 29.2428 22.4563 -18.3649
2 33.2391 20.5416 -18.8018
3 34.1877 20.2346 -18.8787
3 32.8949 20.7907 -19.7071
3 28.7385 12.2568 -15.9732
3 32.5582 11.7139 -16.0184
3 24.8437 13.7901 -16.5119
2 28.9846 12.6064 -17.6721
3 28.8074 13.5782 -17.5168
3 29.916 12.4883 -18.0166
2 33.2947 15.4835 -15.9737
3 32.6925 16.2535 -15.7628
3 33.3449 15.3615 -16.965
3 39.7979 21.1129 -13.6168
3 38.6769 22.2145 -14.0602
2 38.8732 21.4519 -13.4438
3 37.6646 20.1406 -12.9661
3 36.0702 20.2856 -12.6443
2 36.7876 19.6602 -12.9511
3 0.0103731 11.4485 -18.794
3 35.5429 12.6405 -21.2086
3 0.329443 9.57347 -21.8192
3 40.7812 12.343 -20.3669
2 35.6063 14.2534 -22.1223
3 34.728 14.5333 -21.7346
3 36.3376 14.4546 -21.4705
2 37.9857 14.7172 -20.0287
3 38.439 13.8281 -19.9653
3 37.5812 14.949 -19.144
3 1.443 19.0967 -21.6478
2 34.8355 17.638 -19.4298
3 35.6496 18.2114 -19.3382
3 35.0015 16.7518 -18.9972
2 39.396 18.1883 -21.5298
3 38.4988 17.7474 -21.5559
3 40.1 17.5012 -21.3503
3 0.388861 21.1943 -21.5456
2 35.3988 22.1275 -22.0269
3 35.8837 21.9239 -22.8775
3 35.6709 23.0312 -21.6964
2 41.3718 21.5101 -21.1453
3 41.0031 22.3499 -20.7468
3 41.3305 19.6144 -13.5843
3 39.5239 16.263 -15.4431
3 40.4883 17.2406 -14.5594
2 39.8282 17.2062 -15.3098
3 36.5645 17.61 -16.0261
3 38.0747 17.4083 -16.6135
2 37.107 17.2047 -16.7619
2 0.988894 14.7993 -19.1199
2 35.6773 13.5552 -18.2019
3 36.2015 13.2296 -17.4151
3 35.7519 12.8943 -18.9487
2 37.7903 12.6998 -16.3893
3 38.4285 13.4673 -16.3288
3 38.1435 12.0227 -17.0348
2 42.2397 16.7295 -20.0454
3 41.503 16.9306 -19.3998
2 37.5776 18.7087 -19.1141
3 38.4883 18.7307 -19.5267
3 37.5377 17.977 -18.4336
2 40.3916 17.7916 -18.4249
3 40.0586 17.8267 -17.4826
3 40.8835 18.6362 -18.6363
2 0.829436 17.8111 -17.7392
2 35.7345 20.5064 -17.6616
3 35.6812 20.0755 -16.7607
3 36.4509 20.0638 -18.2009
2 41.5616 20.1781 -18.7965
3 41.6599 21.0379 -18.2954
3 41.6637 20.3499 -19.7764
3 1.75572 16.9168 -14.7829
2 0.578538 12.0302 -15.2426
3 34.2519 9.88859 -16.7751
3 38.8465 10.8582 -14.3038
2 0.0541048 14.3009 -16.5005
2 34.8536 16.41 -14.0594
3 34.512 16.0573 -14.9306
3 35.3582 17.2587 -14.2183
2 39.789 14.5659 -15.8967
3 39.9764 14.1427 -15.0103
3 40.6361 14.6215 -16.4253
3 1.52423 43.3398 -13.5189
3 3.76463 0.728475 -11.5167
3 6.25964 2.6958 -13.2076
3 2.30643 6.34228 -14.1802
2 3.63354 4.60644 -14.9026
3 4.20615 4.42701 -15.7026
3 4.16673 5.09899 -14.2148
2 6.11532 4.3205 -13.4746
3 5.74351 5.12756 -13.0159
3 6.73843 4.60798 -14.202
2 0.292081 8.97987 -14.0958
3 1.0032 9.59401 -13.7536
2 4.17718 6.59676 -12.8625
3 3.76411 6.29568 -12.003
3 4.27407 7.59203 -12.8551
2 7.57855 7.09118 -13.4564
3 8.51156 7.02881 -13.102
3 7.00419 7.57901 -12.799
3 2.7511 10.6704 -12.8391
2 4.59905 9.53171 -12.6065
3 4.9276 9.89924 -13.4765
3 4.90781 10.1193 -11.8585
3 9.47748 11.6566 -13.217
3 8.02188 10.9259 -13.3352
3 4.94687 0.525953 -9.37965
3 4.07675 43.4882 -9.82241
2 8.57863 43.5278 -9.73261
3 8.33068 44.0069 -10.5746
3 0.937878 4.42508 -12.0611
2 2.54152 3.49847 -12.7002
3 2.8934 3.8818 -13.5541
3 2.88563 2.56645 -12.5864
2 6.09342 5.5013 -9.57801
3 5.16704 5.62738 -9.93287
3 6.1721 4.59318 -9.16676
2 0.322809 6.8528 -9.87946
3 0.718159 7.6883 -10.2611
2 3.19279 5.24547 -10.5784
3 2.85548 4.49541 -11.1473
3 2.92768 5.08761 -9.62717
2 8.03948 7.22309 -8.58393
3 7.59766 7.98461 -8.10971
3 7.34561 6.56536 -8.87706
2 4.92434 11.8095 -10.7365
3 4.23962 11.4691 -10.0921
2 7.55296 10.7305 -10.2636
3 6.74298 11.2846 -10.4556
3 0.452 44.2589 -7.37461
3 1.86648 1.01541 -7.45727
3 6.37343 0.274154 -7.23958
3 7.24303 0.182341 -8.61871
2 1.3735 3.68628 -7.10794
3 0.729342 4.45076 -7.08269
2 3.25684 5.6652 -7.29546
3 2.77825 4.85509 -6.95683
3 3.8821 6.00162 -6.59127
2 6.55595 3.29438 -8.38684
3 6.41409 2.30559 -8.34015
3 7.51383 3.50335 -8.1899
2 42.3608 6.18112 -7.20074
3 41.3859 5.96515 -7.14579
2 3.82462 8.026 -8.53537
3 3.29927 8.30197 -9.34026
3 3.57181 7.09394 -8.27582
2 6.07626 9.16356 -7.32892
3 6.03526 10.1576 -7.4301
3 5.231 8.75797 -7.67682
3 42.0857 8.83597 -7.92474
2 2.09702 11.414 -8.95887
3 2.19737 11.5266 -7.97031
2 6.47274 11.7352 -7.75253
3 6.73382 11.4962 -8.68779
3 0.763854 2.90683 -4.66208
3 2.79038 3.37839 -5.65201
3 6.48506 1.74322 -5.56633
2 4.72747 6.3763 -5.21954
3 4.58012 7.36343 -5.15744
2 6.32469 3.97581 -5.81508
3 6.63908 3.87264 -6.75875
3 1.78828 7.70494 -5.49521
2 3.00186 9.13048 -5.91021
3 3.42178 8.86353 -6.77763
2 7.35603 8.46314 -4.94694
3 6.84202 8.43662 -5.80432
3 8.13725 7.84179 -5.00732
3 0.304777 9.99028 -5.53976
2 2.67219 11.7433 -6.11266
3 2.44248 11.802 -5.14116
2 6.27617 11.3113 -4.74327
3 6.96694 10.5883 -4.73317
3 10.368 2.1762 -14.028
2 14.2756 0.0435105 -13.0895
3 15.1506 0.445919 -13.3586
2 10.685 4.72036 -13.0556
3 10.5315 4.54291 -12.0836
3 11.554 5.20099 -13.1736
2 14.3833 5.07069 -13.1792
3 14.1033 4.97796 -12.2236
3 14.0258 5.92805 -13.5495
2 10.7023 7.78698 -12.4659
3 10.798 8.78182 -12.4325
3 10.7863 7.47562 -13.4124
2 15.6413 8.93013 -12.5987
3 15.384 9.89491 -12.5439
3 15.5103 8.49895 -11.706
2 10.382 12.8929 -14.6721
3 10.6742 11.9799 -14.9569
2 14.8041 11.4998 -12.2936
3 14.6161 11.4804 -13.2756
3 15.2806 12.348 -12.0622
2 11.7324 1.54215 -10.9775
3 12.7265 1.6464 -11.0057
3 15.0102 1.6746 -10.3743
3 14.3051 1.20261 -11.7696
2 11.0857 4.87692 -10.0406
3 10.5494 4.62569 -9.23487
3 10.8977 5.82879 -10.2827
2 13.6203 4.5715 -10.6499
3 12.6508 4.61918 -10.4094
3 13.9061 3.61422 -10.694
2 10.4643 7.53319 -9.74468
3 9.51074 7.63084 -9.45988
3 10.5621 7.83799 -10.6921
2 15.2715 8.11193 -9.96677
3 15.3858 8.98766 -9.49768
3 14.3915 7.71037 -9.71325
2 11.9372 10.4763 -12.1006
3 12.9166 10.5946 -11.9368
2 13.6171 11.9863 -8.64868
3 12.6848 11.8926 -8.29914
2 9.84851 1.97256 -8.85458
3 9.28812 2.78122 -9.03356
2 16.0471 1.78862 -8.31719
3 15.6968 2.7139 -8.17183
2 9.02744 4.60809 -7.93078
3 9.33213 4.58216 -6.97868
3 8.98077 5.55792 -8.24006
2 15.3565 4.59028 -8.29211
3 15.2539 5.08868 -7.43125
3 14.5841 4.79887 -8.8921
2 12.8858 7.54109 -8.36166
3 12.7964 8.45087 -7.95632
3 12.0673 7.33281 -8.89708
2 14.1659 5.99597 -6.37392
3 14.2228 6.60249 -5.58089
3 13.6938 6.46589 -7.11974
2 10.7808 10.7238 -7.70785
3 10.0385 10.2294 -8.16007
3 14.4729 11.7891 -6.90482
3 14.6491 13.1087 -5.95926
2 10.5076 1.50522 -6.16734
2 12.8997 42.4948 -8.16438
3 13.6421 42.0492 -8.66461
2 10.3344 4.28484 -5.53661
3 10.3754 3.3402 -5.86217
3 10.7798 4.34924 -4.64357
2 15.3863 4.16247 -4.3574
3 15.0321 4.55864 -5.2045
2 9.7884 7.12812 -4.9463
3 10.3529 7.85325 -5.34069
3 10.1834 6.23779 -5.17279
2 13.6189 8.17777 -4.68865
3 12.7249 8.56655 -4.91108
2 11.3235 9.35301 -5.33029
2 15.5494 10.0107 -4.29563
3 16.5961 2.04028 -13.6471
3 17.4624 0.733174 -14.1029
3 20.1259 0.318552 -13.4031
3 24.2839 0.882404 -13.7398
2 16.9518 4.02706 -13.0042
3 15.9956 4.3178 -13.0386
3 17.4163 4.30927 -13.8436
2 22.2304 3.39151 -12.6255
3 22.1355 4.29326 -13.0472
3 22.4403 2.7142 -13.3306
2 25.473 4.38222 -13.294
3 24.8484 4.58814 -12.5407
3 24.9541 4.30395 -14.1453
2 17.8587 8.5505 -13.959
3 18.5683 9.11927 -13.5432
3 17.1049 8.43235 -13.3125
2 22.2923 5.9738 -13.671
3 21.6109 6.13698 -14.3845
3 23.1184 6.50008 -13.8724
2 24.9657 6.94776 -14.1038
3 24.9819 7.94669 -14.0605
3 25.4379 6.57186 -13.3065
2 17.7814 12.0694 -13.3325
3 18.06 11.5749 -12.5092
2 20.0463 10.2708 -13.6102
3 20.4349 10.0593 -14.507
3 24.2283 9.84161 -14.9989
2 17.634 44.1456 -11.3485
3 17.356 43.1986 -11.1874
2 20.3814 0.0256092 -11.3673
3 19.4449 44.1926 -11.0325
2 18.7621 3.06294 -11.0336
3 18.3232 3.59874 -11.7549
3 18.3795 2.13907 -11.025
2 21.1898 3.81727 -10.2975
3 20.2274 3.71296 -10.5481
3 21.7578 3.74123 -11.117
2 24.5771 5.23169 -10.9104
3 24.6744 6.22656 -10.8826
3 23.6066 4.9912 -10.8993
2 17.6425 11.1113 -10.5579
3 18.2565 10.4501 -10.1268
3 16.7371 11.0483 -10.138
2 20.8118 9.16749 -11.0057
3 20.5444 9.2579 -11.965
3 20.0011 9.24324 -10.4251
2 23.9689 8.18562 -10.8703
3 24.2182 9.09085 -11.2144
3 22.9804 8.05861 -10.952
2 15.7289 10.3258 -8.65655
3 14.9698 10.9661 -8.77414
3 23.565 10.9472 -10.3895
2 24.6956 10.8116 -11.7519
3 24.6843 10.3724 -12.6502
3 18.0439 1.18477 -5.81404
2 19.8852 0.49126 -7.99591
3 20.3519 1.37241 -7.92024
3 25.2519 1.03187 -7.95083
2 18.0316 4.04841 -8.54379
3 17.0531 4.11018 -8.34659
3 18.1791 3.41563 -9.30395
2 20.5283 3.22715 -7.7488
3 21.0997 3.44355 -8.54039
3 19.598 3.55694 -7.90918
2 26.0231 4.39432 -8.73334
3 26.9871 4.14981 -8.83744
3 25.7198 4.90444 -9.5382
2 17.8087 7.09909 -8.97707
3 17.9997 6.14525 -9.20884
3 16.9247 7.36497 -9.36161
2 19.0406 9.46356 -9.04147
3 18.9387 10.0289 -8.22295
3 18.7285 8.53393 -8.84538
2 25.5816 8.66331 -8.27513
3 25.7984 9.59521 -8.5659
3 25.0158 8.22031 -8.97057
2 19.0529 11.2876 -7.059
3 18.3885 12.0101 -6.86765
2 21.7978 12.103 -7.61724
3 22.2037 11.8041 -8.48091
2 26.4104 11.0797 -9.43091
3 25.8064 11.8267 -9.7089
3 19.9484 1.16998 -4.09119
3 18.6203 1.17714 -3.14096
2 22.0966 0.856936 -3.8289
3 22.4276 1.76121 -4.09849
2 18.0897 4.09188 -4.58656
3 18.4546 3.1926 -4.3455
2 22.1472 4.50731 -5.86557
3 21.9446 5.48461 -5.9273
3 21.6295 4.01471 -6.56506
3 23.959 4.76475 -6.37915
3 25.1956 4.29702 -7.33756
2 24.9687 9.96958 -5.86134
3 21.6968 10.1647 -4.75402
2 18.747 6.74912 -6.34596
3 18.5745 6.83098 -7.32758
3 18.499 5.83011 -6.03949
2 21.4602 7.16707 -5.8004
3 20.4863 7.03375 -5.98429
3 21.6806 8.14059 -5.86092
2 26.2105 6.77968 -6.00657
3 21.8148 10.5551 -6.33525
3 26.0886 7.39817 -6.78284
2 21.9008 9.8149 -5.66837
3 18.4434 9.9289 -5.95856
3 18.2572 8.38166 -5.4707
2 17.9387 9.32126 -5.34529
3 27.2339 2.18927 -15.0131
2 33.2869 1.08942 -13.7127
2 27.9176 3.52114 -14.2453
3 28.5856 3.31076 -13.5315
3 27.0645 3.82809 -13.8235
2 33.8537 3.86092 -14.3112
3 33.0735 3.94372 -13.6912
3 33.5829 4.15247 -15.2286
2 29.3112 7.61302 -14.7313
3 30.2961 7.75614 -14.8285
3 29.0445 6.78467 -15.224
2 32.1892 7.61417 -14.0023
3 31.7261 7.44322 -13.1327
3 32.5956 8.52781 -13.9896
3 25.8 9.79585 -14.5581
2 27.4327 9.72083 -14.8414
3 28.0429 8.92918 -14.872
2 33.2127 10.2838 -14.2189
3 32.9465 10.3975 -15.1761
3 25.6608 3.4319 -11.0104
3 27.6429 0.0390373 -11.3039
3 27.1689 1.54719 -10.8947
2 32.789 1.11741 -10.8845
2 29.3366 3.38136 -12.0639
3 29.1153 2.42872 -11.8553
3 28.9725 3.97327 -11.3448
2 32.1084 4.11805 -12.256
3 31.1689 3.80029 -12.1281
3 32.3975 4.63626 -11.4511
2 30.0064 7.54482 -11.9998
3 29.2466 7.44451 -11.3574
3 29.648 7.75223 -12.91
2 31.5309 8.76923 -9.43019
3 31.8964 9.32527 -10.1766
3 31.3087 7.85631 -9.77253
3 24.7454 11.8037 -11.8665
2 27.8111 10.2358 -11.6828
3 27.7766 9.94742 -12.6397
2 32.3443 10.3705 -11.6316
3 32.5046 10.1959 -12.6032
2 29.2912 1.68658 -8.70411
3 28.8669 0.955645 -9.23865
3 33.0495 1.10816 -7.69858
2 29.0981 4.29349 -9.36487
3 29.3715 3.39601 -9.01878
3 29.5542 5.00826 -8.83474
2 33.374 2.71046 -8.44817
3 34.0056 3.38317 -8.8335
3 32.945 3.08787 -7.62747
2 29.5166 6.61627 -7.78341
3 28.8698 6.67627 -7.02314
3 29.0734 6.92882 -8.62357
2 32.1651 6.38078 -7.68653
3 31.1831 6.33202 -7.50403
3 32.407 7.311 -7.96249
3 26.9029 10.7344 -10.2298
2 28.1104 7.65216 -9.90715
3 28.484 8.56148 -10.0905
2 30.4828 10.4136 -7.57947
3 30.6451 9.64602 -8.19956
3 26.2889 0.818305 -5.5696
3 28.56 2.04745 -5.67602
3 32.0836 0.971948 -4.30895
3 31.7106 10.1581 -6.42275
2 32.482 9.73707 -5.94565
3 28.9433 10.6398 -6.23949
2 28.1748 10.7047 -5.60299
2 29.6249 3.96526 -5.32321
3 29.3291 4.92037 -5.3067
2 32.2012 3.84542 -6.33442
3 31.2878 3.87576 -5.92842
3 32.4276 4.7428 -6.71318
3 25.3888 9.42709 -6.58882
2 28.7749 6.73951 -5.17882
3 29.0393 7.60714 -4.7577
3 27.7855 6.72703 -5.32352
2 33.6807 7.42781 -5.04988
3 33.257 8.21226 -5.5028
3 1.30415 43.8744 -15.0461
3 35.9518 1.02999 -12.366
3 36.2582 2.63334 -12.4107
3 38.8521 0.53679 -13.4394
2 1.32028 6.45113 -14.055
3 1.00788 5.84335 -13.325
2 35.6066 4.21225 -12.2145
3 36.3683 4.74265 -12.5867
3 34.8076 4.3156 -12.8068
2 39.6299 4.8341 -14.8828
3 39.8022 5.81765 -14.9371
3 38.8042 4.61124 -15.4011
3 0.681677 8.07186 -14.2498
2 36.8296 6.60905 -12.4968
3 36.3326 6.82786 -11.657
3 37.8099 6.73791 -12.3472
2 39.3291 6.65643 -11.6338
3 39.502 6.60525 -10.6502
3 40.1541 6.97406 -12.1011
2 1.77162 10.859 -12.768
2 35.5645 11.0935 -13.5859
3 35.6733 10.6928 -12.6762
3 36.373 10.8906 -14.1384
2 40.6758 10.7207 -13.3936
3 41.6351 10.5348 -13.6062
3 0.393209 43.369 -11.5609
3 35.3836 43.8746 -10.4428
3 34.3187 0.430535 -11.3638
3 40.9762 2.36243 -11.8507
2 0.143272 5.03202 -12.0457
3 41.9185 4.50672 -12.2551
2 35.0525 4.7805 -9.49259
3 35.1527 4.58719 -10.4686
3 35.2639 5.74253 -9.31994
2 40.4209 3.76025 -12.4887
3 39.8594 4.15572 -11.7618
3 40.2301 4.23034 -13.3504
3 0.114684 6.21401 -10.6202
2 35.7912 7.80546 -10.1471
3 35.7409 8.76373 -10.4285
3 35.7569 7.74886 -9.14928
2 39.8949 6.81804 -8.9308
3 39.274 7.01201 -8.17129
3 40.3129 7.6702 -9.24552
2 0.955284 9.44299 -10.3816
3 1.18776 9.6833 -11.324
2 35.1737 10.3476 -10.9664
3 35.1334 11.3403 -10.8523
2 40.9923 9.07232 -9.98723
3 40.5505 9.78895 -9.44754
3 36.1133 44.1821 -8.28234
3 39.7617 2.74615 -7.45629
3 0.884612 2.84609 -7.34259
2 36.7208 3.53053 -7.44687
3 37.6503 3.82948 -7.66307
3 36.105 3.79277 -8.18987
2 39.2854 4.46626 -7.7662
3 39.4168 5.21513 -8.41578
3 39.272 4.83108 -6.83522
3 -0.0160769 6.48127 -8.12817
2 35.2554 7.56248 -7.47317
3 35.1852 8.5324 -7.24009
3 34.4489 7.07874 -7.13337
2 37.9858 7.49545 -7.12248
3 38.188 7.92509 -6.2424
3 36.9951 7.44223 -7.24764
2 42.4285 9.5564 -7.32185
2 34.8223 10.3331 -7.34171
3 33.8662 10.1316 -7.12893
3 34.8745 11.1788 -7.87289
2 40.2482 11.2455 -8.01572
3 40.4585 12.2196 -8.09956
2 0.62478 1.92902 -4.50536
3 38.856 10.0568 -5.27937
2 39.2819 10.8933 -5.62412
2 40.6423 2.087 -4.5126
3 40.4976 1.83161 -5.46854
2 0.895317 4.53673 -3.75961
3 0.900402 5.43764 -4.19359
3 37.7451 11.7864 -5.96988
2 36.756 11.9335 -5.96307
2 37.0176 4.49653 -4.31449
3 38.0141 4.49944 -4.2315
3 36.7626 4.30086 -5.26141